spack_view: /pfs/lustrep1/scratch/project_465000416/sipintar/sirius-md/.spack-env/view
spack_view: /pfs/lustrep1/scratch/project_465000416/sipintar/sirius-md/.spack-env/view
spack_view: /pfs/lustrep1/scratch/project_465000416/sipintar/sirius-md/.spack-env/view
spack_view: /pfs/lustrep1/scratch/project_465000416/sipintar/sirius-md/.spack-env/view
spack_view: /pfs/lustrep1/scratch/project_465000416/sipintar/sirius-md/.spack-env/view
spack_view: /pfs/lustrep1/scratch/project_465000416/sipintar/sirius-md/.spack-env/view
spack_view: /pfs/lustrep1/scratch/project_465000416/sipintar/sirius-md/.spack-env/view
spack_view: /pfs/lustrep1/scratch/project_465000416/sipintar/sirius-md/.spack-env/view
SIRIUS 7.5.1, git hash: 716da3d7b0f886135eb7b6a6d013868eb9674ffc

     Program PWSCF v.7.2 starts on 14May2024 at  0:11:24 
        Git branch: feat/md
        Last git commit: b82c6e1dc331955aa93b6381cedf3292df8fe927
        Last git commit date: Fri Dec 22 21:56:42 2023 +0100
        Last git commit subject: call sirius_initialize_subspace in reset_gvectors

     This program is part of the open-source Quantum ESPRESSO suite
     for quantum simulation of materials; please cite
         "P. Giannozzi et al., J. Phys.:Condens. Matter 21 395502 (2009);
         "P. Giannozzi et al., J. Phys.:Condens. Matter 29 465901 (2017);
         "P. Giannozzi et al., J. Chem. Phys. 152 154105 (2020);
          URL http://www.quantum-espresso.org", 
     in publications or presentations arising from this work. More details at
     http://www.quantum-espresso.org/quote

     Parallel version (MPI & OpenMP), running on      56 processor cores
     Number of MPI processes:                 8
     Threads/MPI process:                     7

     MPI processes distributed on     1 nodes
     488339 MiB available memory on the printing compute node when the environment starts

     Reading input from aiida.in

     Current dimensions of program PWSCF are:
     Max number of different atomic species (ntypx) = 10
     Max number of k-points (npk) =  40000
     Max angular momentum in pseudopotentials (lmaxx) =  4
     file Er.paw.z_22.atompaw.wentzcovitch.v1.2.upf: wavefunction(s)  6S 0P 5D 0D 4F 0F renormalized
     Message from routine setup:
     using ibrav=0 with symmetry is DISCOURAGED, use correct ibrav instead

     K-points division:     npool     =       8
     Subspace diagonalization in iterative solution of the eigenvalue problem:
     a serial algorithm will be used


     G-vector sticks info
     --------------------
     sticks:   dense  smooth     PW     G-vecs:    dense   smooth      PW
     Sum        1663     847    253                56181    19865    3247

     Using Slab Decomposition



     bravais-lattice index     =            0
     lattice parameter (alat)  =       7.1087  a.u.
     unit-cell volume          =     316.0219 (a.u.)^3
     number of atoms/cell      =            3
     number of atomic types    =            3
     number of electrons       =        29.00
     number of Kohn-Sham states=           19
     kinetic-energy cutoff     =      60.0000  Ry
     charge density cutoff     =     480.0000  Ry
     scf convergence threshold =      6.0E-10
     mixing beta               =       0.4000
     number of iterations used =            8  plain     mixing
     energy convergence thresh.=      3.0E-05
     force convergence thresh. =      1.0E-04
     press convergence thresh. =      5.0E-01
     Exchange-correlation= SLA  PW   PSX  PSC
                           (   1   4  10   8   0   0   0)
     nstep                     =           50


     celldm(1)=   7.108666  celldm(2)=   0.000000  celldm(3)=   0.000000
     celldm(4)=   0.000000  celldm(5)=   0.000000  celldm(6)=   0.000000

     crystal axes: (cart. coord. in units of alat)
               a(1) = (   1.000000   0.000000  -0.000000 )  
               a(2) = (  -0.500000   0.866025   0.000000 )  
               a(3) = (  -0.000000   0.000000   1.015833 )  

     reciprocal axes: (cart. coord. in units 2 pi/alat)
               b(1) = (  1.000000  0.577350  0.000000 )  
               b(2) = ( -0.000000  1.154701 -0.000000 )  
               b(3) = (  0.000000  0.000000  0.984414 )  


     PseudoPot. # 1 for Er read from file:
     ./pseudo/Er.paw.z_22.atompaw.wentzcovitch.v1.2.upf
     MD5 check sum: 3d5fe14767f74d36bf4904614a37904f
     Pseudo is Projector augmented-wave + core cor, Zval = 22.0
     Generated using ATOMPAW code
     Shape of augmentation charge: BESSEL
     Using radial grid of 1114 points,  8 beta functions with: 
                l(1) =   0
                l(2) =   0
                l(3) =   1
                l(4) =   1
                l(5) =   2
                l(6) =   2
                l(7) =   3
                l(8) =   3
     Q(r) pseudized with 0 coefficients 


     PseudoPot. # 2 for H  read from file:
     ./pseudo/H.pbesol-rrkjus_psl.1.0.0.UPF
     MD5 check sum: 0324ed591cc0147dc3d88cad0d33f665
     Pseudo is Ultrasoft, Zval =  1.0
     Generated using "atomic" code by A. Dal Corso  v.6.0 svn rev. 13079
     Using radial grid of  929 points,  2 beta functions with: 
                l(1) =   0
                l(2) =   0
     Q(r) pseudized with 0 coefficients 


     PseudoPot. # 3 for Se read from file:
     ./pseudo/se_pbesol_v1.uspp.F.UPF
     MD5 check sum: a3b4745ad650bb7419ce2e0d5f176975
     Pseudo is Ultrasoft + core correction, Zval =  6.0
     Generated by new atomic code, or converted to UPF format
     Using radial grid of  877 points,  6 beta functions with: 
                l(1) =   0
                l(2) =   0
                l(3) =   1
                l(4) =   1
                l(5) =   2
                l(6) =   2
     Q(r) pseudized with  8 coefficients,  rinner =    1.300   1.300   1.300
                                                       1.300   1.300

     atomic species   valence    mass     pseudopotential
        Er            22.00   167.25900     Er( 1.00)
        H              1.00     1.00794     H ( 1.00)
        Se             6.00    78.96000     Se( 1.00)

     Starting magnetic structure 
     atomic species   magnetization
        Er           0.318
        H            0.100
        Se           0.100

     12 Sym. Ops. (no inversion) found


                                    s                        frac. trans.

      isym =  1     identity                                     

 cryst.   s( 1) = (     1          0          0      )
                  (     0          1          0      )
                  (     0          0          1      )

 cart.    s( 1) = (  1.0000000  0.0000000  0.0000000 )
                  (  0.0000000  1.0000000  0.0000000 )
                  (  0.0000000  0.0000000  1.0000000 )


      isym =  2     180 deg rotation - cart. axis [0,1,0]        

 cryst.   s( 2) = (    -1          0          0      )
                  (     1          1          0      )
                  (     0          0         -1      )

 cart.    s( 2) = ( -1.0000000  0.0000000  0.0000000 )
                  (  0.0000000  1.0000000  0.0000000 )
                  (  0.0000000  0.0000000 -1.0000000 )


      isym =  3     120 deg rotation - cryst. axis [0,0,1]       

 cryst.   s( 3) = (     0          1          0      )
                  (    -1         -1          0      )
                  (     0          0          1      )

 cart.    s( 3) = ( -0.5000000 -0.8660254  0.0000000 )
                  (  0.8660254 -0.5000000  0.0000000 )
                  (  0.0000000  0.0000000  1.0000000 )


      isym =  4     120 deg rotation - cryst. axis [0,0,-1]      

 cryst.   s( 4) = (    -1         -1          0      )
                  (     1          0          0      )
                  (     0          0          1      )

 cart.    s( 4) = ( -0.5000000  0.8660254  0.0000000 )
                  ( -0.8660254 -0.5000000  0.0000000 )
                  (  0.0000000  0.0000000  1.0000000 )


      isym =  5     180 deg rotation - cryst. axis [1,-1,0]      

 cryst.   s( 5) = (     0         -1          0      )
                  (    -1          0          0      )
                  (     0          0         -1      )

 cart.    s( 5) = (  0.5000000 -0.8660254  0.0000000 )
                  ( -0.8660254 -0.5000000  0.0000000 )
                  (  0.0000000  0.0000000 -1.0000000 )


      isym =  6     180 deg rotation - cryst. axis [2,1,0]       

 cryst.   s( 6) = (     1          1          0      )
                  (     0         -1          0      )
                  (     0          0         -1      )

 cart.    s( 6) = (  0.5000000  0.8660254  0.0000000 )
                  (  0.8660254 -0.5000000  0.0000000 )
                  (  0.0000000  0.0000000 -1.0000000 )


      isym =  7     inv. 180 deg rotation - cart. axis [0,0,1]   

 cryst.   s( 7) = (     1          0          0      )
                  (     0          1          0      )
                  (     0          0         -1      )

 cart.    s( 7) = (  1.0000000  0.0000000  0.0000000 )
                  (  0.0000000  1.0000000  0.0000000 )
                  (  0.0000000  0.0000000 -1.0000000 )


      isym =  8     inv. 180 deg rotation - cart. axis [1,0,0]   

 cryst.   s( 8) = (    -1          0          0      )
                  (     1          1          0      )
                  (     0          0          1      )

 cart.    s( 8) = ( -1.0000000  0.0000000  0.0000000 )
                  (  0.0000000  1.0000000  0.0000000 )
                  (  0.0000000  0.0000000  1.0000000 )


      isym =  9     inv.  60 deg rotation - cryst. axis [0,0,1]  

 cryst.   s( 9) = (    -1         -1          0      )
                  (     1          0          0      )
                  (     0          0         -1      )

 cart.    s( 9) = ( -0.5000000  0.8660254  0.0000000 )
                  ( -0.8660254 -0.5000000  0.0000000 )
                  (  0.0000000  0.0000000 -1.0000000 )


      isym = 10     inv.  60 deg rotation - cryst. axis [0,0,-1] 

 cryst.   s(10) = (     0          1          0      )
                  (    -1         -1          0      )
                  (     0          0         -1      )

 cart.    s(10) = ( -0.5000000 -0.8660254  0.0000000 )
                  (  0.8660254 -0.5000000  0.0000000 )
                  (  0.0000000  0.0000000 -1.0000000 )


      isym = 11     inv. 180 deg rotation - cryst. axis [0,1,0]  

 cryst.   s(11) = (     1          1          0      )
                  (     0         -1          0      )
                  (     0          0          1      )

 cart.    s(11) = (  0.5000000  0.8660254  0.0000000 )
                  (  0.8660254 -0.5000000  0.0000000 )
                  (  0.0000000  0.0000000  1.0000000 )


      isym = 12     inv. 180 deg rotation - cryst. axis [1,1,0]  

 cryst.   s(12) = (     0         -1          0      )
                  (    -1          0          0      )
                  (     0          0          1      )

 cart.    s(12) = (  0.5000000 -0.8660254  0.0000000 )
                  ( -0.8660254 -0.5000000  0.0000000 )
                  (  0.0000000  0.0000000  1.0000000 )


   Cartesian axes

     site n.     atom                  positions (alat units)
         1           Er  tau(   1) = (   0.0000000  -0.0000000  -0.0000000  )
         2           H   tau(   2) = (   0.5000000   0.2886751  -0.0000000  )
         3           Se  tau(   3) = (  -0.0000000   0.5773503   0.5079164  )

   Crystallographic axes

     site n.     atom                  positions (cryst. coord.)
         1           Er  tau(   1) = (  0.0000000  0.0000000  0.0000000  )
         2           H   tau(   2) = (  0.6666667  0.3333333  0.0000000  )
         3           Se  tau(   3) = (  0.3333333  0.6666667  0.5000000  )

     number of k points=   126  Marzari-Vanderbilt smearing, width (Ry)=  0.0200
                       cart. coord. in units 2pi/alat
        k(    1) = (   0.0000000   0.0000000   0.0000000), wk =   0.0005379
        k(    2) = (   0.0000000   0.0000000   0.0894922), wk =   0.0010758
        k(    3) = (   0.0000000   0.0000000   0.1789843), wk =   0.0010758
        k(    4) = (   0.0000000   0.0000000   0.2684765), wk =   0.0010758
        k(    5) = (   0.0000000   0.0000000   0.3579687), wk =   0.0010758
        k(    6) = (   0.0000000   0.0000000   0.4474609), wk =   0.0010758
        k(    7) = (   0.0000000   0.0888231   0.0000000), wk =   0.0032275
        k(    8) = (   0.0000000   0.0888231   0.0894922), wk =   0.0064551
        k(    9) = (   0.0000000   0.0888231   0.1789843), wk =   0.0064551
        k(   10) = (   0.0000000   0.0888231   0.2684765), wk =   0.0064551
        k(   11) = (   0.0000000   0.0888231   0.3579687), wk =   0.0064551
        k(   12) = (   0.0000000   0.0888231   0.4474609), wk =   0.0064551
        k(   13) = (   0.0000000   0.1776462   0.0000000), wk =   0.0032275
        k(   14) = (   0.0000000   0.1776462   0.0894922), wk =   0.0064551
        k(   15) = (   0.0000000   0.1776462   0.1789843), wk =   0.0064551
        k(   16) = (   0.0000000   0.1776462   0.2684765), wk =   0.0064551
        k(   17) = (   0.0000000   0.1776462   0.3579687), wk =   0.0064551
        k(   18) = (   0.0000000   0.1776462   0.4474609), wk =   0.0064551
        k(   19) = (   0.0000000   0.2664694   0.0000000), wk =   0.0032275
        k(   20) = (   0.0000000   0.2664694   0.0894922), wk =   0.0064551
        k(   21) = (   0.0000000   0.2664694   0.1789843), wk =   0.0064551
        k(   22) = (   0.0000000   0.2664694   0.2684765), wk =   0.0064551
        k(   23) = (   0.0000000   0.2664694   0.3579687), wk =   0.0064551
        k(   24) = (   0.0000000   0.2664694   0.4474609), wk =   0.0064551
        k(   25) = (   0.0000000   0.3552925   0.0000000), wk =   0.0032275
        k(   26) = (   0.0000000   0.3552925   0.0894922), wk =   0.0064551
        k(   27) = (   0.0000000   0.3552925   0.1789843), wk =   0.0064551
        k(   28) = (   0.0000000   0.3552925   0.2684765), wk =   0.0064551
        k(   29) = (   0.0000000   0.3552925   0.3579687), wk =   0.0064551
        k(   30) = (   0.0000000   0.3552925   0.4474609), wk =   0.0064551
        k(   31) = (   0.0000000   0.4441156   0.0000000), wk =   0.0032275
        k(   32) = (   0.0000000   0.4441156   0.0894922), wk =   0.0064551
        k(   33) = (   0.0000000   0.4441156   0.1789843), wk =   0.0064551
        k(   34) = (   0.0000000   0.4441156   0.2684765), wk =   0.0064551
        k(   35) = (   0.0000000   0.4441156   0.3579687), wk =   0.0064551
        k(   36) = (   0.0000000   0.4441156   0.4474609), wk =   0.0064551
        k(   37) = (   0.0000000   0.5329387   0.0000000), wk =   0.0032275
        k(   38) = (   0.0000000   0.5329387   0.0894922), wk =   0.0064551
        k(   39) = (   0.0000000   0.5329387   0.1789843), wk =   0.0064551
        k(   40) = (   0.0000000   0.5329387   0.2684765), wk =   0.0064551
        k(   41) = (   0.0000000   0.5329387   0.3579687), wk =   0.0064551
        k(   42) = (   0.0000000   0.5329387   0.4474609), wk =   0.0064551
        k(   43) = (   0.0769231   0.1332347   0.0000000), wk =   0.0032275
        k(   44) = (   0.0769231   0.1332347   0.0894922), wk =   0.0064551
        k(   45) = (   0.0769231   0.1332347   0.1789843), wk =   0.0064551
        k(   46) = (   0.0769231   0.1332347   0.2684765), wk =   0.0064551
        k(   47) = (   0.0769231   0.1332347   0.3579687), wk =   0.0064551
        k(   48) = (   0.0769231   0.1332347   0.4474609), wk =   0.0064551
        k(   49) = (   0.0769231   0.2220578   0.0000000), wk =   0.0064551
        k(   50) = (   0.0769231   0.2220578   0.0894922), wk =   0.0129102
        k(   51) = (   0.0769231   0.2220578   0.1789843), wk =   0.0129102
        k(   52) = (   0.0769231   0.2220578   0.2684765), wk =   0.0129102
        k(   53) = (   0.0769231   0.2220578   0.3579687), wk =   0.0129102
        k(   54) = (   0.0769231   0.2220578   0.4474609), wk =   0.0129102
        k(   55) = (   0.0769231   0.3108809   0.0000000), wk =   0.0064551
        k(   56) = (   0.0769231   0.3108809   0.0894922), wk =   0.0129102
        k(   57) = (   0.0769231   0.3108809   0.1789843), wk =   0.0129102
        k(   58) = (   0.0769231   0.3108809   0.2684765), wk =   0.0129102
        k(   59) = (   0.0769231   0.3108809   0.3579687), wk =   0.0129102
        k(   60) = (   0.0769231   0.3108809   0.4474609), wk =   0.0129102
        k(   61) = (   0.0769231   0.3997040   0.0000000), wk =   0.0064551
        k(   62) = (   0.0769231   0.3997040   0.0894922), wk =   0.0129102
        k(   63) = (   0.0769231   0.3997040   0.1789843), wk =   0.0129102
        k(   64) = (   0.0769231   0.3997040   0.2684765), wk =   0.0129102
        k(   65) = (   0.0769231   0.3997040   0.3579687), wk =   0.0129102
        k(   66) = (   0.0769231   0.3997040   0.4474609), wk =   0.0129102
        k(   67) = (   0.0769231   0.4885272   0.0000000), wk =   0.0064551
        k(   68) = (   0.0769231   0.4885272   0.0894922), wk =   0.0129102
        k(   69) = (   0.0769231   0.4885272   0.1789843), wk =   0.0129102
        k(   70) = (   0.0769231   0.4885272   0.2684765), wk =   0.0129102
        k(   71) = (   0.0769231   0.4885272   0.3579687), wk =   0.0129102
        k(   72) = (   0.0769231   0.4885272   0.4474609), wk =   0.0129102
        k(   73) = (   0.0769231   0.5773503   0.0000000), wk =   0.0032275
        k(   74) = (   0.0769231   0.5773503   0.0894922), wk =   0.0064551
        k(   75) = (   0.0769231   0.5773503   0.1789843), wk =   0.0064551
        k(   76) = (   0.0769231   0.5773503   0.2684765), wk =   0.0064551
        k(   77) = (   0.0769231   0.5773503   0.3579687), wk =   0.0064551
        k(   78) = (   0.0769231   0.5773503   0.4474609), wk =   0.0064551
        k(   79) = (   0.1538462   0.2664694   0.0000000), wk =   0.0032275
        k(   80) = (   0.1538462   0.2664694   0.0894922), wk =   0.0064551
        k(   81) = (   0.1538462   0.2664694   0.1789843), wk =   0.0064551
        k(   82) = (   0.1538462   0.2664694   0.2684765), wk =   0.0064551
        k(   83) = (   0.1538462   0.2664694   0.3579687), wk =   0.0064551
        k(   84) = (   0.1538462   0.2664694   0.4474609), wk =   0.0064551
        k(   85) = (   0.1538462   0.3552925   0.0000000), wk =   0.0064551
        k(   86) = (   0.1538462   0.3552925   0.0894922), wk =   0.0129102
        k(   87) = (   0.1538462   0.3552925   0.1789843), wk =   0.0129102
        k(   88) = (   0.1538462   0.3552925   0.2684765), wk =   0.0129102
        k(   89) = (   0.1538462   0.3552925   0.3579687), wk =   0.0129102
        k(   90) = (   0.1538462   0.3552925   0.4474609), wk =   0.0129102
        k(   91) = (   0.1538462   0.4441156   0.0000000), wk =   0.0064551
        k(   92) = (   0.1538462   0.4441156   0.0894922), wk =   0.0129102
        k(   93) = (   0.1538462   0.4441156   0.1789843), wk =   0.0129102
        k(   94) = (   0.1538462   0.4441156   0.2684765), wk =   0.0129102
        k(   95) = (   0.1538462   0.4441156   0.3579687), wk =   0.0129102
        k(   96) = (   0.1538462   0.4441156   0.4474609), wk =   0.0129102
        k(   97) = (   0.1538462   0.5329387   0.0000000), wk =   0.0064551
        k(   98) = (   0.1538462   0.5329387   0.0894922), wk =   0.0129102
        k(   99) = (   0.1538462   0.5329387   0.1789843), wk =   0.0129102
        k(  100) = (   0.1538462   0.5329387   0.2684765), wk =   0.0129102
        k(  101) = (   0.1538462   0.5329387   0.3579687), wk =   0.0129102
        k(  102) = (   0.1538462   0.5329387   0.4474609), wk =   0.0129102
        k(  103) = (   0.2307692   0.3997040   0.0000000), wk =   0.0032275
        k(  104) = (   0.2307692   0.3997040   0.0894922), wk =   0.0064551
        k(  105) = (   0.2307692   0.3997040   0.1789843), wk =   0.0064551
        k(  106) = (   0.2307692   0.3997040   0.2684765), wk =   0.0064551
        k(  107) = (   0.2307692   0.3997040   0.3579687), wk =   0.0064551
        k(  108) = (   0.2307692   0.3997040   0.4474609), wk =   0.0064551
        k(  109) = (   0.2307692   0.4885272   0.0000000), wk =   0.0064551
        k(  110) = (   0.2307692   0.4885272   0.0894922), wk =   0.0129102
        k(  111) = (   0.2307692   0.4885272   0.1789843), wk =   0.0129102
        k(  112) = (   0.2307692   0.4885272   0.2684765), wk =   0.0129102
        k(  113) = (   0.2307692   0.4885272   0.3579687), wk =   0.0129102
        k(  114) = (   0.2307692   0.4885272   0.4474609), wk =   0.0129102
        k(  115) = (   0.2307692   0.5773503   0.0000000), wk =   0.0032275
        k(  116) = (   0.2307692   0.5773503   0.0894922), wk =   0.0064551
        k(  117) = (   0.2307692   0.5773503   0.1789843), wk =   0.0064551
        k(  118) = (   0.2307692   0.5773503   0.2684765), wk =   0.0064551
        k(  119) = (   0.2307692   0.5773503   0.3579687), wk =   0.0064551
        k(  120) = (   0.2307692   0.5773503   0.4474609), wk =   0.0064551
        k(  121) = (   0.3076923   0.5329387   0.0000000), wk =   0.0032275
        k(  122) = (   0.3076923   0.5329387   0.0894922), wk =   0.0064551
        k(  123) = (   0.3076923   0.5329387   0.1789843), wk =   0.0064551
        k(  124) = (   0.3076923   0.5329387   0.2684765), wk =   0.0064551
        k(  125) = (   0.3076923   0.5329387   0.3579687), wk =   0.0064551
        k(  126) = (   0.3076923   0.5329387   0.4474609), wk =   0.0064551

                       cryst. coord.
        k(    1) = (   0.0000000   0.0000000   0.0000000), wk =   0.0005379
        k(    2) = (   0.0000000   0.0000000   0.0909091), wk =   0.0010758
        k(    3) = (   0.0000000   0.0000000   0.1818182), wk =   0.0010758
        k(    4) = (   0.0000000   0.0000000   0.2727273), wk =   0.0010758
        k(    5) = (   0.0000000   0.0000000   0.3636364), wk =   0.0010758
        k(    6) = (   0.0000000   0.0000000   0.4545455), wk =   0.0010758
        k(    7) = (   0.0000000   0.0769231   0.0000000), wk =   0.0032275
        k(    8) = (   0.0000000   0.0769231   0.0909091), wk =   0.0064551
        k(    9) = (   0.0000000   0.0769231   0.1818182), wk =   0.0064551
        k(   10) = (   0.0000000   0.0769231   0.2727273), wk =   0.0064551
        k(   11) = (   0.0000000   0.0769231   0.3636364), wk =   0.0064551
        k(   12) = (   0.0000000   0.0769231   0.4545455), wk =   0.0064551
        k(   13) = (   0.0000000   0.1538462   0.0000000), wk =   0.0032275
        k(   14) = (   0.0000000   0.1538462   0.0909091), wk =   0.0064551
        k(   15) = (   0.0000000   0.1538462   0.1818182), wk =   0.0064551
        k(   16) = (   0.0000000   0.1538462   0.2727273), wk =   0.0064551
        k(   17) = (   0.0000000   0.1538462   0.3636364), wk =   0.0064551
        k(   18) = (   0.0000000   0.1538462   0.4545455), wk =   0.0064551
        k(   19) = (   0.0000000   0.2307692   0.0000000), wk =   0.0032275
        k(   20) = (   0.0000000   0.2307692   0.0909091), wk =   0.0064551
        k(   21) = (   0.0000000   0.2307692   0.1818182), wk =   0.0064551
        k(   22) = (   0.0000000   0.2307692   0.2727273), wk =   0.0064551
        k(   23) = (   0.0000000   0.2307692   0.3636364), wk =   0.0064551
        k(   24) = (   0.0000000   0.2307692   0.4545455), wk =   0.0064551
        k(   25) = (   0.0000000   0.3076923   0.0000000), wk =   0.0032275
        k(   26) = (   0.0000000   0.3076923   0.0909091), wk =   0.0064551
        k(   27) = (   0.0000000   0.3076923   0.1818182), wk =   0.0064551
        k(   28) = (   0.0000000   0.3076923   0.2727273), wk =   0.0064551
        k(   29) = (   0.0000000   0.3076923   0.3636364), wk =   0.0064551
        k(   30) = (   0.0000000   0.3076923   0.4545455), wk =   0.0064551
        k(   31) = (   0.0000000   0.3846154   0.0000000), wk =   0.0032275
        k(   32) = (   0.0000000   0.3846154   0.0909091), wk =   0.0064551
        k(   33) = (   0.0000000   0.3846154   0.1818182), wk =   0.0064551
        k(   34) = (   0.0000000   0.3846154   0.2727273), wk =   0.0064551
        k(   35) = (   0.0000000   0.3846154   0.3636364), wk =   0.0064551
        k(   36) = (   0.0000000   0.3846154   0.4545455), wk =   0.0064551
        k(   37) = (   0.0000000   0.4615385   0.0000000), wk =   0.0032275
        k(   38) = (   0.0000000   0.4615385   0.0909091), wk =   0.0064551
        k(   39) = (   0.0000000   0.4615385   0.1818182), wk =   0.0064551
        k(   40) = (   0.0000000   0.4615385   0.2727273), wk =   0.0064551
        k(   41) = (   0.0000000   0.4615385   0.3636364), wk =   0.0064551
        k(   42) = (   0.0000000   0.4615385   0.4545455), wk =   0.0064551
        k(   43) = (   0.0769231   0.0769231   0.0000000), wk =   0.0032275
        k(   44) = (   0.0769231   0.0769231   0.0909091), wk =   0.0064551
        k(   45) = (   0.0769231   0.0769231   0.1818182), wk =   0.0064551
        k(   46) = (   0.0769231   0.0769231   0.2727273), wk =   0.0064551
        k(   47) = (   0.0769231   0.0769231   0.3636364), wk =   0.0064551
        k(   48) = (   0.0769231   0.0769231   0.4545455), wk =   0.0064551
        k(   49) = (   0.0769231   0.1538462   0.0000000), wk =   0.0064551
        k(   50) = (   0.0769231   0.1538462   0.0909091), wk =   0.0129102
        k(   51) = (   0.0769231   0.1538462   0.1818182), wk =   0.0129102
        k(   52) = (   0.0769231   0.1538462   0.2727273), wk =   0.0129102
        k(   53) = (   0.0769231   0.1538462   0.3636364), wk =   0.0129102
        k(   54) = (   0.0769231   0.1538462   0.4545455), wk =   0.0129102
        k(   55) = (   0.0769231   0.2307692   0.0000000), wk =   0.0064551
        k(   56) = (   0.0769231   0.2307692   0.0909091), wk =   0.0129102
        k(   57) = (   0.0769231   0.2307692   0.1818182), wk =   0.0129102
        k(   58) = (   0.0769231   0.2307692   0.2727273), wk =   0.0129102
        k(   59) = (   0.0769231   0.2307692   0.3636364), wk =   0.0129102
        k(   60) = (   0.0769231   0.2307692   0.4545455), wk =   0.0129102
        k(   61) = (   0.0769231   0.3076923   0.0000000), wk =   0.0064551
        k(   62) = (   0.0769231   0.3076923   0.0909091), wk =   0.0129102
        k(   63) = (   0.0769231   0.3076923   0.1818182), wk =   0.0129102
        k(   64) = (   0.0769231   0.3076923   0.2727273), wk =   0.0129102
        k(   65) = (   0.0769231   0.3076923   0.3636364), wk =   0.0129102
        k(   66) = (   0.0769231   0.3076923   0.4545455), wk =   0.0129102
        k(   67) = (   0.0769231   0.3846154   0.0000000), wk =   0.0064551
        k(   68) = (   0.0769231   0.3846154   0.0909091), wk =   0.0129102
        k(   69) = (   0.0769231   0.3846154   0.1818182), wk =   0.0129102
        k(   70) = (   0.0769231   0.3846154   0.2727273), wk =   0.0129102
        k(   71) = (   0.0769231   0.3846154   0.3636364), wk =   0.0129102
        k(   72) = (   0.0769231   0.3846154   0.4545455), wk =   0.0129102
        k(   73) = (   0.0769231   0.4615385   0.0000000), wk =   0.0032275
        k(   74) = (   0.0769231   0.4615385   0.0909091), wk =   0.0064551
        k(   75) = (   0.0769231   0.4615385   0.1818182), wk =   0.0064551
        k(   76) = (   0.0769231   0.4615385   0.2727273), wk =   0.0064551
        k(   77) = (   0.0769231   0.4615385   0.3636364), wk =   0.0064551
        k(   78) = (   0.0769231   0.4615385   0.4545455), wk =   0.0064551
        k(   79) = (   0.1538462   0.1538462   0.0000000), wk =   0.0032275
        k(   80) = (   0.1538462   0.1538462   0.0909091), wk =   0.0064551
        k(   81) = (   0.1538462   0.1538462   0.1818182), wk =   0.0064551
        k(   82) = (   0.1538462   0.1538462   0.2727273), wk =   0.0064551
        k(   83) = (   0.1538462   0.1538462   0.3636364), wk =   0.0064551
        k(   84) = (   0.1538462   0.1538462   0.4545455), wk =   0.0064551
        k(   85) = (   0.1538462   0.2307692   0.0000000), wk =   0.0064551
        k(   86) = (   0.1538462   0.2307692   0.0909091), wk =   0.0129102
        k(   87) = (   0.1538462   0.2307692   0.1818182), wk =   0.0129102
        k(   88) = (   0.1538462   0.2307692   0.2727273), wk =   0.0129102
        k(   89) = (   0.1538462   0.2307692   0.3636364), wk =   0.0129102
        k(   90) = (   0.1538462   0.2307692   0.4545455), wk =   0.0129102
        k(   91) = (   0.1538462   0.3076923   0.0000000), wk =   0.0064551
        k(   92) = (   0.1538462   0.3076923   0.0909091), wk =   0.0129102
        k(   93) = (   0.1538462   0.3076923   0.1818182), wk =   0.0129102
        k(   94) = (   0.1538462   0.3076923   0.2727273), wk =   0.0129102
        k(   95) = (   0.1538462   0.3076923   0.3636364), wk =   0.0129102
        k(   96) = (   0.1538462   0.3076923   0.4545455), wk =   0.0129102
        k(   97) = (   0.1538462   0.3846154   0.0000000), wk =   0.0064551
        k(   98) = (   0.1538462   0.3846154   0.0909091), wk =   0.0129102
        k(   99) = (   0.1538462   0.3846154   0.1818182), wk =   0.0129102
        k(  100) = (   0.1538462   0.3846154   0.2727273), wk =   0.0129102
        k(  101) = (   0.1538462   0.3846154   0.3636364), wk =   0.0129102
        k(  102) = (   0.1538462   0.3846154   0.4545455), wk =   0.0129102
        k(  103) = (   0.2307692   0.2307692   0.0000000), wk =   0.0032275
        k(  104) = (   0.2307692   0.2307692   0.0909091), wk =   0.0064551
        k(  105) = (   0.2307692   0.2307692   0.1818182), wk =   0.0064551
        k(  106) = (   0.2307692   0.2307692   0.2727273), wk =   0.0064551
        k(  107) = (   0.2307692   0.2307692   0.3636364), wk =   0.0064551
        k(  108) = (   0.2307692   0.2307692   0.4545455), wk =   0.0064551
        k(  109) = (   0.2307692   0.3076923   0.0000000), wk =   0.0064551
        k(  110) = (   0.2307692   0.3076923   0.0909091), wk =   0.0129102
        k(  111) = (   0.2307692   0.3076923   0.1818182), wk =   0.0129102
        k(  112) = (   0.2307692   0.3076923   0.2727273), wk =   0.0129102
        k(  113) = (   0.2307692   0.3076923   0.3636364), wk =   0.0129102
        k(  114) = (   0.2307692   0.3076923   0.4545455), wk =   0.0129102
        k(  115) = (   0.2307692   0.3846154   0.0000000), wk =   0.0032275
        k(  116) = (   0.2307692   0.3846154   0.0909091), wk =   0.0064551
        k(  117) = (   0.2307692   0.3846154   0.1818182), wk =   0.0064551
        k(  118) = (   0.2307692   0.3846154   0.2727273), wk =   0.0064551
        k(  119) = (   0.2307692   0.3846154   0.3636364), wk =   0.0064551
        k(  120) = (   0.2307692   0.3846154   0.4545455), wk =   0.0064551
        k(  121) = (   0.3076923   0.3076923   0.0000000), wk =   0.0032275
        k(  122) = (   0.3076923   0.3076923   0.0909091), wk =   0.0064551
        k(  123) = (   0.3076923   0.3076923   0.1818182), wk =   0.0064551
        k(  124) = (   0.3076923   0.3076923   0.2727273), wk =   0.0064551
        k(  125) = (   0.3076923   0.3076923   0.3636364), wk =   0.0064551
        k(  126) = (   0.3076923   0.3076923   0.4545455), wk =   0.0064551

     Dense  grid:    56181 G-vectors     FFT dimensions: (  50,  50,  54)

     Smooth grid:    19865 G-vectors     FFT dimensions: (  36,  36,  36)

     Dynamical RAM for                 wfc:       0.72 MB

     Dynamical RAM for     wfc (w. buffer):      23.73 MB

     Dynamical RAM for           str. fact:       2.57 MB

     Dynamical RAM for           local pot:       0.00 MB

     Dynamical RAM for          nlocal pot:       1.97 MB

     Dynamical RAM for                qrad:      25.31 MB

     Dynamical RAM for          rho,v,vnew:      11.32 MB

     Dynamical RAM for               rhoin:       3.77 MB

     Dynamical RAM for            rho*nmix:      27.43 MB

     Dynamical RAM for           G-vectors:       3.37 MB

     Dynamical RAM for          h,s,v(r/c):       0.07 MB

     Dynamical RAM for          <psi|beta>:       0.02 MB

     Dynamical RAM for                 psi:       1.44 MB

     Dynamical RAM for                hpsi:       1.44 MB

     Dynamical RAM for                spsi:       1.44 MB

     Dynamical RAM for      wfcinit/wfcrot:       2.83 MB

     Dynamical RAM for           addusdens:      61.18 MB

     Dynamical RAM for          addusforce:      60.46 MB

     Dynamical RAM for         addusstress:      63.27 MB

     Estimated static dynamical RAM per process >      81.65 MB

     Estimated max dynamical RAM per process >     172.36 MB

     Estimated total dynamical RAM >       1.16 GB
     Generating pointlists ...
     new r_m :   0.2382 (alat units)  1.6930 (a.u.) for type    1
     new r_m :   0.2382 (alat units)  1.6930 (a.u.) for type    2
     new r_m :   0.3172 (alat units)  2.2549 (a.u.) for type    3

     Initial potential from superposition of free atoms

     starting charge      28.9961, renormalised to      29.0000
     Starting wfcs are   37 randomized atomic wfcs
 
 ==========================================
 * initializing SIRIUS simulation context *
 ==========================================
[info] SIRIUS version : 7.5.1
[info] git hash       : 716da3d7b0f886135eb7b6a6d013868eb9674ffc
[info] git branch     : heads/sirius-md
[info] build time     : 2024-03-12 20:37:36
[info] start time     : Tue, 14 May 2024 00:11:33
[info] 
[info] number of MPI ranks           : 8
[info] MPI grid                      : 1 1
[info] maximum number of OMP threads : 7
[info] number of MPI ranks per node  : 8
[info] page size (Kb)                : 4
[info] number of pages               : 131909117
[info] available memory (GB)         : 503
[info] 
[fft] FFT context for density and potential
[fft] =====================================
[fft]   comm size                             : 8
[fft]   plane wave cutoff                     : 21.9089
[fft]   grid size                             : 50 50 54   total : 135000
[fft]   grid limits                           : -24 25   -24 25   -26 27
[fft]   number of G-vectors within the cutoff : 28091
[fft]   local number of G-vectors             : 3511
[fft]   number of G-shells                    : 2766
[fft] 
[fft] FFT context for coarse grid
[fft] =====================================
[fft]   comm size                             : 1
[fft]   plane wave cutoff                     : 15.4919
[fft]   grid size                             : 40 40 40   total : 64000
[fft]   grid limits                           : -19 20   -19 20   -19 20
[fft]   number of G-vectors within the cutoff : 9933
[fft]   local number of G-vectors             : 1242
[fft]   number of G-shells                    : 1043
[fft] 
[fft] 
[unit cell] lattice vectors
[unit cell]   a1 :       7.1086659045      0.0000000000     -0.0000000000
[unit cell]   a2 :      -3.5543329523      6.1562852602      0.0000000000
[unit cell]   a3 :      -0.0000000000      0.0000000000      7.2212166998
[unit cell] reciprocal lattice vectors
[unit cell]   b1 :       0.8838768612      0.5103065438      0.0000000000
[unit cell]   b2 :      -0.0000000000      1.0206130875     -0.0000000000
[unit cell]   b3 :       0.0000000000      0.0000000000      0.8701006449
[unit cell] 
[unit cell] unit cell volume :       316.02192682 [a.u.^3]
[unit cell] 1/sqrt(omega)    :         0.05625244
[unit cell] MT volume        :         0.00000000 ( 0.00%)
[unit cell] IT volume        :       316.02192682 (100.00%)
[unit cell] 
[unit cell] number of atom types : 3
[unit cell] type id : 0 symbol :    mt_radius :  14.996358 num_atoms : 1
[unit cell] type id : 1 symbol :    mt_radius :  99.484316 num_atoms : 1
[unit cell] type id : 2 symbol :    mt_radius : 204.608162 num_atoms : 1
[unit cell] total number of atoms : 3
[unit cell] number of symmetry classes : 3
[unit cell] number of PAW atoms : 1
[unit cell] PAW atoms : 0
[unit cell] 
[unit cell] minimum bond length:     4.104190
[unit cell] 
[unit cell] total number of pseudo wave-functions: 37
[unit cell] 
[sym] space group number   : 187
[sym] international symbol : P-6m2
[sym] Hall symbol          : P -6 2
[sym] space group transformation matrix : 
[sym]   1.0000 -0.0000  0.0000
[sym]   0.0000  1.0000  0.0000
[sym]   0.0000  0.0000  1.0000
[sym] space group origin shift : 
[sym]   0.0000  0.0000  0.0000
[sym] number of space group operations  : 12
[sym] number of magnetic group operations : 12
[sym] metric tensor error: 2.0755e-09
[sym] rotation matrix error: 4.7427e-11
[atom type] label          : Er
[atom type] --------------------------------------------------------------------------------
[atom type] symbol         : 
[atom type] name           : 
[atom type] zn             : 22
[atom type] mass           : 167.259
[atom type] mt_radius      : 14.9964
[atom type] num_mt_points  : 1114
[atom type] grid_origin    : 1.36102e-05
[atom type] grid_name      : external
[atom type] 
[atom type] number of core electrons    : 0
[atom type] number of valence electrons : 22
[atom type] 
[atom type] total number of radial functions : 8
[atom type] lmax of radial functions         : 3
[atom type] max. number of radial functions  : 2
[atom type] total number of basis functions  : 32
[atom type] number of aw basis functions     : 32
[atom type] number of lo basis functions     : 0
[atom type] lmax_apw                         : -1
[atom type] lmax of beta-projectors          : 3
[atom type] number of ps wavefunctions       : 8
[atom type] charge augmentation              : true
[atom type] vloc is set                      : true
[atom type] ps_rho_core is set               : true
[atom type] ps_rho_total is set              : true
[atom type] Hubbard correction               : false
[atom type] spin-orbit coupling              : false
[atom type] atomic wave-functions            : {l: 0}, {l: 0}, {l: 1}, {l: 1}, {l: 2}, {l: 2}, {l: 3}, {l: 3}
[atom type] 
[atom type] label          : H
[atom type] --------------------------------------------------------------------------------
[atom type] symbol         : 
[atom type] name           : 
[atom type] zn             : 1
[atom type] mass           : 1.00794
[atom type] mt_radius      : 99.4843
[atom type] num_mt_points  : 929
[atom type] grid_origin    : 0.000911882
[atom type] grid_name      : external
[atom type] 
[atom type] number of core electrons    : 0
[atom type] number of valence electrons : 1
[atom type] 
[atom type] total number of radial functions : 2
[atom type] lmax of radial functions         : 0
[atom type] max. number of radial functions  : 2
[atom type] total number of basis functions  : 2
[atom type] number of aw basis functions     : 2
[atom type] number of lo basis functions     : 0
[atom type] lmax_apw                         : -1
[atom type] lmax of beta-projectors          : 0
[atom type] number of ps wavefunctions       : 1
[atom type] charge augmentation              : true
[atom type] vloc is set                      : true
[atom type] ps_rho_core is set               : true
[atom type] ps_rho_total is set              : true
[atom type] Hubbard correction               : false
[atom type] spin-orbit coupling              : false
[atom type] atomic wave-functions            : {l: 0}
[atom type] 
[atom type] label          : Se
[atom type] --------------------------------------------------------------------------------
[atom type] symbol         : 
[atom type] name           : 
[atom type] zn             : 6
[atom type] mass           : 78.96
[atom type] mt_radius      : 204.608
[atom type] num_mt_points  : 877
[atom type] grid_origin    : 0
[atom type] grid_name      : external
[atom type] 
[atom type] number of core electrons    : 0
[atom type] number of valence electrons : 6
[atom type] 
[atom type] total number of radial functions : 6
[atom type] lmax of radial functions         : 2
[atom type] max. number of radial functions  : 2
[atom type] total number of basis functions  : 18
[atom type] number of aw basis functions     : 18
[atom type] number of lo basis functions     : 0
[atom type] lmax_apw                         : -1
[atom type] lmax of beta-projectors          : 2
[atom type] number of ps wavefunctions       : 2
[atom type] charge augmentation              : true
[atom type] vloc is set                      : true
[atom type] ps_rho_core is set               : true
[atom type] ps_rho_total is set              : true
[atom type] Hubbard correction               : false
[atom type] spin-orbit coupling              : false
[atom type] atomic wave-functions            : {l: 0}, {l: 1}
[atom type] 
[info] total nuclear charge               : 29
[info] number of core electrons           : 0
[info] number of valence electrons        : 29
[info] total number of electrons          : 29
[info] extra charge                       : 0
[info] total number of aw basis functions : 52
[info] total number of lo basis functions : 0
[info] number of first-variational states : -1
[info] number of bands                    : 19
[info] number of spins                    : 2
[info] number of magnetic dimensions      : 1
[info] number of spinor components        : 1
[info] number of spinors per band index   : 2
[info] lmax_apw                           : -1
[info] lmax_rho                           : -1
[info] lmax_pot                           : -1
[info] lmax_rf                            : 3
[info] smearing type                      : cold
[info] smearing width                     : 0.01
[info] cyclic block size                  : 16
[info] |G+k| cutoff                       : 7.74597
[info] symmetry                           : true
[info] so_correction                      : false
[info] valence relativity                 : zora
[info] core relativity                    : Dirac
[info] standard eigen-value solver        : MAGMA
[info] generalized eigen-value solver     : LAPACK
[info] processing unit                    : GPU
[info] number of devices                  : 1
[info]   name                             : 
[info]   major                            : 9
[info]   minor                            : 0
[info]   clockRate                        : 1700000 kHz
[info]   memoryClockRate                  : 1600000 kHz
[info]   memoryBusWidth                   : 4096 bits
[info]   sharedMemPerBlock                : 64 kB
[info]   totalConstMem                    : 2097151 kB
[info]   totalGlobalMem                   : 67092480 kB
[info]   available memory                 : 66301151 kB
[info]   l2CacheSize                      : 8192 kB
[info]   warpSize                         : 64
[info]   regsPerBlock                     : 65536
[info]   canMapHostMemory                 : 1
[info]   concurrentKernels                : 1
[info]   maxGridSize                      : 2147483647 2147483647 2147483647
[info]   maxThreadsDim                    : 1024 1024 1024
[info]   maxThreadsPerBlock               : 1024
[info]   maxThreadsPerMultiProcessor      : 2048
[info]   multiProcessorCount              : 110
[info]   pciBusID                         : 193
[info]   pciDeviceID                      : 0
[info]   pciDomainID                      : 0
[info] 
[info] iterative solver                   : davidson
[info] number of steps                    : 20
[info] subspace size                      : 2
[info] early restart ratio                : 0.5
[info] precision_wf                       : fp64
[info] precision_hs                       : fp64
[info] mixer                              : anderson
[info] mixing beta                        : 0.4
[info] max_history                        : 8
[info] use_hartree                        : true
[info] 
[info] spglib version: 2.0.2
[info] HDF5 version: 1.14.0
[info] Libxc version: 6.1.0
[info] 
[info] XC functionals
[info] ==============
[info] 1) XC_GGA_X_PBE_SOL : Perdew, Burke & Ernzerhof SOL
[info] J. P. Perdew, A. Ruzsinszky, G. I. Csonka, O. A. Vydrov, G. E. Scuseria, L. A. Constantin, X. Zhou, and K. Burke.,  Phys. Rev. Lett. 100, 136406 (2008) (10.1103/PhysRevLett.100.136406)
[info] 
[info] 2) XC_GGA_C_PBE_SOL : Perdew, Burke & Ernzerhof SOL
[info] J. P. Perdew, A. Ruzsinszky, G. I. Csonka, O. A. Vydrov, G. E. Scuseria, L. A. Constantin, X. Zhou, and K. Burke.,  Phys. Rev. Lett. 100, 136406 (2008) (10.1103/PhysRevLett.100.136406)
[info] 
[info] 
[info] memory consumption
[info] ==================
[info] approximate number of G+k vectors        : 2480
[info] approximate number of G vectors          : 28060
[info] approximate number of coarse G vectors   : 9920
[info] approximate size of wave-functions for each k-point: 1 Mb,  1 Mb/rank
[info] approximate memory consumption of Davidson solver: 8 Mb/rank
[info] approximate memory consumption of charge density augmentation: 84 Mb/rank
[info] approximate memory consumption of FFT transforms: 1 Mb/rank
[print_info] 
[print_info] total number of k-points : 126
[print_info] --------------------------------------------------------------------------------
[print_info] 
[print_info]   ik                vk                    weight  num_gkvec
[print_info] --------------------------------------------------------------------------------
[print_info]    0   0.0000   0.0000   0.0000         0.000538       2495
[print_info]    1   0.0000   0.0000   0.0909         0.001076       2489
[print_info]    2   0.0000   0.0000   0.1818         0.001076       2490
[print_info]    3   0.0000   0.0000   0.2727         0.001076       2502
[print_info]    4   0.0000   0.0000   0.3636         0.001076       2478
[print_info]    5   0.0000   0.0000   0.4545         0.001076       2460
[print_info]    6   0.0000   0.0769   0.0000         0.003228       2491
[print_info]    7   0.0000   0.0769   0.0909         0.006455       2489
[print_info]    8   0.0000   0.0769   0.1818         0.006455       2492
[print_info]    9   0.0000   0.0769   0.2727         0.006455       2482
[print_info]   10   0.0000   0.0769   0.3636         0.006455       2462
[print_info]   11   0.0000   0.0769   0.4545         0.006455       2461
[print_info]   12   0.0000   0.1538   0.0000         0.003228       2479
[print_info]   13   0.0000   0.1538   0.0909         0.006455       2492
[print_info]   14   0.0000   0.1538   0.1818         0.006455       2485
[print_info]   15   0.0000   0.1538   0.2727         0.006455       2478
[print_info]   16   0.0000   0.1538   0.3636         0.006455       2462
[print_info]   17   0.0000   0.1538   0.4545         0.006455       2468
[print_info]   18   0.0000   0.2308   0.0000         0.003228       2469
[print_info]   19   0.0000   0.2308   0.0909         0.006455       2479
[print_info]   20   0.0000   0.2308   0.1818         0.006455       2473
[print_info]   21   0.0000   0.2308   0.2727         0.006455       2479
[print_info]   22   0.0000   0.2308   0.3636         0.006455       2471
[print_info]   23   0.0000   0.2308   0.4545         0.006455       2481
[print_info]   24   0.0000   0.3077   0.0000         0.003228       2479
[print_info]   25   0.0000   0.3077   0.0909         0.006455       2470
[print_info]   26   0.0000   0.3077   0.1818         0.006455       2481
[print_info]   27   0.0000   0.3077   0.2727         0.006455       2484
[print_info]   28   0.0000   0.3077   0.3636         0.006455       2488
[print_info]   29   0.0000   0.3077   0.4545         0.006455       2483
[print_info]   30   0.0000   0.3846   0.0000         0.003228       2469
[print_info]   31   0.0000   0.3846   0.0909         0.006455       2479
[print_info]   32   0.0000   0.3846   0.1818         0.006455       2484
[print_info]   33   0.0000   0.3846   0.2727         0.006455       2487
[print_info]   34   0.0000   0.3846   0.3636         0.006455       2479
[print_info]   35   0.0000   0.3846   0.4545         0.006455       2488
[print_info]   36   0.0000   0.4615   0.0000         0.003228       2478
[print_info]   37   0.0000   0.4615   0.0909         0.006455       2479
[print_info]   38   0.0000   0.4615   0.1818         0.006455       2484
[print_info]   39   0.0000   0.4615   0.2727         0.006455       2488
[print_info]   40   0.0000   0.4615   0.3636         0.006455       2490
[print_info]   41   0.0000   0.4615   0.4545         0.006455       2489
[print_info]   42   0.0769   0.0769   0.0000         0.003228       2487
[print_info]   43   0.0769   0.0769   0.0909         0.006455       2487
[print_info]   44   0.0769   0.0769   0.1818         0.006455       2491
[print_info]   45   0.0769   0.0769   0.2727         0.006455       2474
[print_info]   46   0.0769   0.0769   0.3636         0.006455       2474
[print_info]   47   0.0769   0.0769   0.4545         0.006455       2468
[print_info]   48   0.0769   0.1538   0.0000         0.006455       2480
[print_info]   49   0.0769   0.1538   0.0909         0.012910       2481
[print_info]   50   0.0769   0.1538   0.1818         0.012910       2485
[print_info]   51   0.0769   0.1538   0.2727         0.012910       2475
[print_info]   52   0.0769   0.1538   0.3636         0.012910       2475
[print_info]   53   0.0769   0.1538   0.4545         0.012910       2467
[print_info]   54   0.0769   0.2308   0.0000         0.006455       2479
[print_info]   55   0.0769   0.2308   0.0909         0.012910       2473
[print_info]   56   0.0769   0.2308   0.1818         0.012910       2483
[print_info]   57   0.0769   0.2308   0.2727         0.012910       2475
[print_info]   58   0.0769   0.2308   0.3636         0.012910       2482
[print_info]   59   0.0769   0.2308   0.4545         0.012910       2484
[print_info]   60   0.0769   0.3077   0.0000         0.006455       2482
[print_info]   61   0.0769   0.3077   0.0909         0.012910       2473
[print_info]   62   0.0769   0.3077   0.1818         0.012910       2477
[print_info]   63   0.0769   0.3077   0.2727         0.012910       2484
[print_info]   64   0.0769   0.3077   0.3636         0.012910       2492
[print_info]   65   0.0769   0.3077   0.4545         0.012910       2490
[print_info]   66   0.0769   0.3846   0.0000         0.006455       2473
[print_info]   67   0.0769   0.3846   0.0909         0.012910       2476
[print_info]   68   0.0769   0.3846   0.1818         0.012910       2483
[print_info]   69   0.0769   0.3846   0.2727         0.012910       2490
[print_info]   70   0.0769   0.3846   0.3636         0.012910       2490
[print_info]   71   0.0769   0.3846   0.4545         0.012910       2486
[print_info]   72   0.0769   0.4615   0.0000         0.003228       2466
[print_info]   73   0.0769   0.4615   0.0909         0.006455       2480
[print_info]   74   0.0769   0.4615   0.1818         0.006455       2482
[print_info]   75   0.0769   0.4615   0.2727         0.006455       2490
[print_info]   76   0.0769   0.4615   0.3636         0.006455       2487
[print_info]   77   0.0769   0.4615   0.4545         0.006455       2485
[print_info]   78   0.1538   0.1538   0.0000         0.003228       2471
[print_info]   79   0.1538   0.1538   0.0909         0.006455       2480
[print_info]   80   0.1538   0.1538   0.1818         0.006455       2479
[print_info]   81   0.1538   0.1538   0.2727         0.006455       2479
[print_info]   82   0.1538   0.1538   0.3636         0.006455       2483
[print_info]   83   0.1538   0.1538   0.4545         0.006455       2480
[print_info]   84   0.1538   0.2308   0.0000         0.006455       2472
[print_info]   85   0.1538   0.2308   0.0909         0.012910       2471
[print_info]   86   0.1538   0.2308   0.1818         0.012910       2478
[print_info]   87   0.1538   0.2308   0.2727         0.012910       2482
[print_info]   88   0.1538   0.2308   0.3636         0.012910       2484
[print_info]   89   0.1538   0.2308   0.4545         0.012910       2488
[print_info]   90   0.1538   0.3077   0.0000         0.006455       2466
[print_info]   91   0.1538   0.3077   0.0909         0.012910       2469
[print_info]   92   0.1538   0.3077   0.1818         0.012910       2477
[print_info]   93   0.1538   0.3077   0.2727         0.012910       2482
[print_info]   94   0.1538   0.3077   0.3636         0.012910       2483
[print_info]   95   0.1538   0.3077   0.4545         0.012910       2494
[print_info]   96   0.1538   0.3846   0.0000         0.006455       2478
[print_info]   97   0.1538   0.3846   0.0909         0.012910       2478
[print_info]   98   0.1538   0.3846   0.1818         0.012910       2478
[print_info]   99   0.1538   0.3846   0.2727         0.012910       2480
[print_info]  100   0.1538   0.3846   0.3636         0.012910       2484
[print_info]  101   0.1538   0.3846   0.4545         0.012910       2492
[print_info]  102   0.2308   0.2308   0.0000         0.003228       2473
[print_info]  103   0.2308   0.2308   0.0909         0.006455       2466
[print_info]  104   0.2308   0.2308   0.1818         0.006455       2469
[print_info]  105   0.2308   0.2308   0.2727         0.006455       2478
[print_info]  106   0.2308   0.2308   0.3636         0.006455       2474
[print_info]  107   0.2308   0.2308   0.4545         0.006455       2484
[print_info]  108   0.2308   0.3077   0.0000         0.006455       2479
[print_info]  109   0.2308   0.3077   0.0909         0.012910       2474
[print_info]  110   0.2308   0.3077   0.1818         0.012910       2471
[print_info]  111   0.2308   0.3077   0.2727         0.012910       2476
[print_info]  112   0.2308   0.3077   0.3636         0.012910       2486
[print_info]  113   0.2308   0.3077   0.4545         0.012910       2487
[print_info]  114   0.2308   0.3846   0.0000         0.003228       2488
[print_info]  115   0.2308   0.3846   0.0909         0.006455       2471
[print_info]  116   0.2308   0.3846   0.1818         0.006455       2471
[print_info]  117   0.2308   0.3846   0.2727         0.006455       2478
[print_info]  118   0.2308   0.3846   0.3636         0.006455       2486
[print_info]  119   0.2308   0.3846   0.4545         0.006455       2487
[print_info]  120   0.3077   0.3077   0.0000         0.003228       2479
[print_info]  121   0.3077   0.3077   0.0909         0.006455       2478
[print_info]  122   0.3077   0.3077   0.1818         0.006455       2466
[print_info]  123   0.3077   0.3077   0.2727         0.006455       2471
[print_info]  124   0.3077   0.3077   0.3636         0.006455       2477
[print_info]  125   0.3077   0.3077   0.4545         0.006455       2485

     total cpu time spent up to now is       20.8 secs
 
 ============================
 * running SCF ground state *
 ============================
[find] density_tol               : 6e-10
[find] energy_tol                : 0.0001
[find] iter_solver_tol (initial) : 0.01
[find] iter_solver_tol (target)  : 1e-13
[find] num_dft_iter              : 80
[find] 
[find] converged after 26 SCF iterations!
[find] 
[find] 
[find] Charges and magnetic moments
[find] --------------------------------------------------------------------------------
[find] atom                moment                |moment|
[find] --------------------------------------------------------------------------------
[find]    0 [  0.00000,   0.00000,   2.48306]    2.483060
[find]    1 [  0.00000,   0.00000,   0.02480]    0.024803
[find]    2 [  0.00000,   0.00000,   0.06474]    0.064736
[find] 
[find] total charge          : 29.000000
[find] total moment          : [  0.00000,   0.00000,   2.93230], magnitude : 2.932305
[find] 
[find] Energy
[find] --------------------------------------------------------------------------------
[find] valence_eval_sum               :       1.46239581
[find] <rho|V^{XC}>                   :     -25.06937740
[find] <rho|E^{XC}>                   :     -31.52646706
[find] <mag|B^{XC}>                   :      -0.14967860
[find] <rho|V^{H}>                    :     137.07477757
[find] one-electron contribution      :    -133.38831892 (Ha),    -266.77663784 (Ry)
[find] hartree contribution           :      68.53738878
[find] xc contribution                :     -31.52646706
[find] ewald contribution             :    -124.75551039
[find] PAW contribution               :    -240.01397197
[find] smearing (-TS)                 :      -0.00694814
[find] SCF correction                 :      -0.00004202
[find] Total energy                   :    -461.15386970 (Ha),    -922.30773940 (Ry)
[find] 
[find] band gap (eV)                  :       0.00000000
[find] Efermi                         :       0.42039491
[find] 
 
 =============================
 * running NLCG ground state *
 =============================
0              -461.1538697004533	-1.2476920932010e-09 -1.0000000000000e+00
	 kT * S       : -0.0069477082652
	 Fermi energy : 0.4203866321284
	 KS energy    : -461.1469219921881
atom              moment                |moment|
--------------------------------------------------------------------------------
   0  [  0.0000,   0.0000,   2.4830]    2.483024
   1  [  0.0000,   0.0000,   0.0248]    0.024789
   2  [  0.0000,   0.0000,   0.0647]    0.064727

1              -461.1538697006485	-7.0019057437963e-11 -1.0000000000000e+00
	 kT * S       : -0.0069478269720
	 Fermi energy : 0.4203887161815
	 KS energy    : -461.1469218736765
atom              moment                |moment|
--------------------------------------------------------------------------------
   0  [  0.0000,   0.0000,   2.4830]    2.483041
   1  [  0.0000,   0.0000,   0.0248]    0.024789
   2  [  0.0000,   0.0000,   0.0647]    0.064725

kT * S   : -0.00694782697197
F        : -461.1538697006
KS-energy: -461.1469218737
NLCG SUCCESS

!    total energy              =    -922.30774975 Ry
     estimated scf accuracy    <          0.0E+00 Ry
     smearing contrib. (-TS)   =      -0.01390602 Ry
     internal energy E=F+TS    =    -922.29384373 Ry

     The total energy is F=E-TS. E is the sum of the following terms:
     one-electron contribution =    -266.77674568 Ry
     hartree contribution      =     137.07481422 Ry
     xc contribution           =     -63.05293507 Ry
     ewald contribution        =    -249.51102076 Ry
     one-center paw contrib.   =    -480.02795645 Ry
      -> PAW hartree energy AE =       0.00000000 Ry
      -> PAW hartree energy PS =       0.00000000 Ry
      -> PAW xc energy AE      =       0.00000000 Ry
      -> PAW xc energy PS      =       0.00000000 Ry
      -> total E_H with PAW    =     137.07481422 Ry
      -> total E_XC with PAW   =     -63.05293507 Ry
 
     Band energy sum           =       2.92472969 Ry

     total magnetization       =     2.93 Bohr mag/cell
     absolute magnetization    =     2.93 Bohr mag/cell

     convergence has been achieved in  25 iterations

 ------ SPIN UP ------------


          k = 0.0000 0.0000 0.0000 (  2495 PWs)   bands (ev):

   -37.5303 -11.4122 -11.3227 -11.3227  -1.6793   7.9918   9.0015   9.1366
     9.1366   9.1442   9.1442   9.1988   9.4157  10.4123  10.4123  10.5325
    13.6564  16.4222  16.4222

     occupation numbers 
     1.0000   1.0000   1.0000   1.0000   1.0000   1.0000   1.0000   1.0000
     1.0000   1.0000   1.0000   1.0000   1.0000   1.0000   1.0000   1.0003
     0.0000   0.0000   0.0000

          k = 0.0000 0.0000 0.0895 (  2489 PWs)   bands (ev):

   -37.5299 -11.4317 -11.3213 -11.3213  -1.6085   7.6971   8.9862   9.1051
     9.1051   9.1693   9.1693   9.1989   9.3190  10.4584  10.4584  10.8453
    13.8073  15.8175  15.8175

     occupation numbers 
     1.0000   1.0000   1.0000   1.0000   1.0000   1.0000   1.0000   1.0000
     1.0000   1.0000   1.0000   1.0000   1.0000   1.0001   1.0001   1.0267
     0.0000   0.0000   0.0000

          k = 0.0000 0.0000 0.1790 (  2490 PWs)   bands (ev):

   -37.5287 -11.4832 -11.3175 -11.3175  -1.4112   6.9988   8.9704   9.0667
     9.0667   9.1933   9.1933   9.1989   9.2355  10.5816  10.5816  11.3894
    14.2593  15.1230  15.1230

     occupation numbers 
     1.0000   1.0000   1.0000   1.0000   1.0000   1.0000   1.0000   1.0000
     1.0000   1.0000   1.0000   1.0000   1.0000   1.0007   1.0007   0.5330
     0.0000   0.0000   0.0000

          k = 0.0000 0.0000 0.2685 (  2502 PWs)   bands (ev):

   -37.5272 -11.5493 -11.3125 -11.3125  -1.1323   6.2155   8.9699   9.0313
     9.0313   9.1972   9.1990   9.2148   9.2148  10.7415  10.7415  11.8724
    14.6042  14.6042  15.0001

     occupation numbers 
     1.0000   1.0000   1.0000   1.0000   1.0000   1.0000   1.0000   1.0000
     1.0000   1.0000   1.0000   1.0000   1.0000   1.0084   1.0084   0.0026
     0.0000   0.0000   0.0000

          k = 0.0000 0.0000 0.3580 (  2478 PWs)   bands (ev):

   -37.5258 -11.6087 -11.3080 -11.3080  -0.8486   5.5579   8.9758   9.0050
     9.0050   9.1771   9.1991   9.2326   9.2326  10.8852  10.8852  12.2215
    14.3047  14.3047  15.9775

     occupation numbers 
     1.0000   1.0000   1.0000   1.0000   1.0000   1.0000   1.0000   1.0000
     1.0000   1.0000   1.0000   1.0000   1.0000   1.0381   1.0381   0.0000
     0.0000   0.0000   0.0000

          k = 0.0000 0.0000 0.4475 (  2460 PWs)   bands (ev):

   -37.5250 -11.6435 -11.3052 -11.3052  -0.6630   5.1775   8.9807   8.9912
     8.9912   9.1676   9.1992   9.2431   9.2431  10.9674  10.9674  12.4070
    14.1949  14.1949  16.2720

     occupation numbers 
     1.0000   1.0000   1.0000   1.0000   1.0000   1.0000   1.0000   1.0000
     1.0000   1.0000   1.0000   1.0000   1.0000   1.0657   1.0657   0.0000
     0.0000   0.0000   0.0000

          k = 0.0000 0.0888 0.0000 (  2491 PWs)   bands (ev):

   -37.5295 -11.4095 -11.3443 -11.3269  -1.6199   7.9203   8.9964   9.1357
     9.1384   9.1394   9.1428   9.1947   9.4287  10.2353  10.4359  10.4821
    14.0355  16.0124  16.4425

     occupation numbers 
     1.0000   1.0000   1.0000   1.0000   1.0000   1.0000   1.0000   1.0000
     1.0000   1.0000   1.0000   1.0000   1.0000   1.0000   1.0000   1.0001
     0.0000   0.0000   0.0000

          k = 0.0000 0.0888 0.0895 (  2489 PWs)   bands (ev):

   -37.5291 -11.4288 -11.3426 -11.3254  -1.5522   7.6662   8.9798   9.1032
     9.1083   9.1650   9.1671   9.1951   9.3358  10.1695  10.4745  10.8551
    14.1708  15.7031  15.8174

     occupation numbers 
     1.0000   1.0000   1.0000   1.0000   1.0000   1.0000   1.0000   1.0000
     1.0000   1.0000   1.0000   1.0000   1.0000   1.0000   1.0001   1.0293
     0.0000   0.0000   0.0000

          k = 0.0000 0.0888 0.1790 (  2492 PWs)   bands (ev):

   -37.5280 -11.4797 -11.3381 -11.3216  -1.3636   7.0286   8.9587   9.0664
     9.0668   9.1867   9.1904   9.1981   9.2427  10.2630  10.5758  11.3535
    14.5668  15.1436  15.2455

     occupation numbers 
     1.0000   1.0000   1.0000   1.0000   1.0000   1.0000   1.0000   1.0000
     1.0000   1.0000   1.0000   1.0000   1.0000   1.0000   1.0007   0.6320
     0.0000   0.0000   0.0000

          k = 0.0000 0.0888 0.2685 (  2482 PWs)   bands (ev):

   -37.5265 -11.5448 -11.3325 -11.3165  -1.0982   6.2863   8.9556   9.0289
     9.0324   9.1930   9.1976   9.2142   9.2154  10.4457  10.7021  11.7092
    14.6594  14.8363  15.3271

     occupation numbers 
     1.0000   1.0000   1.0000   1.0000   1.0000   1.0000   1.0000   1.0000
     1.0000   1.0000   1.0000   1.0000   1.0000   1.0001   1.0049   0.0304
     0.0000   0.0000   0.0000

          k = 0.0000 0.0888 0.3580 (  2462 PWs)   bands (ev):

   -37.5251 -11.6034 -11.3274 -11.3118  -0.8299   5.6568   8.9628   9.0013
     9.0069   9.1782   9.1939   9.2316   9.2320  10.6373  10.8086  11.8807
    14.3978  14.7364  16.1057

     occupation numbers 
     1.0000   1.0000   1.0000   1.0000   1.0000   1.0000   1.0000   1.0000
     1.0000   1.0000   1.0000   1.0000   1.0000   1.0019   1.0184   0.0023
     0.0000   0.0000   0.0000

          k = 0.0000 0.0888 0.4475 (  2461 PWs)   bands (ev):

   -37.5243 -11.6377 -11.3243 -11.3091  -0.6556   5.2926   8.9723   8.9839
     8.9934   9.1687   9.1941   9.2419   9.2427  10.7621  10.8654  11.9308
    14.3136  14.7394  16.0276

     occupation numbers 
     1.0000   1.0000   1.0000   1.0000   1.0000   1.0000   1.0000   1.0000
     1.0000   1.0000   1.0000   1.0000   1.0000   1.0108   1.0322   0.0009
     0.0000   0.0000   0.0000

          k = 0.0000 0.1776 0.0000 (  2479 PWs)   bands (ev):

   -37.5273 -11.4035 -11.4019 -11.3383  -1.4529   7.6806   8.9812   9.1131
     9.1357   9.1433   9.1484   9.1844   9.3961  10.0432  10.3501  10.4947
    14.6671  15.5030  16.5318

     occupation numbers 
     1.0000   1.0000   1.0000   1.0000   1.0000   1.0000   1.0000   1.0000
     1.0000   1.0000   1.0000   1.0000   1.0000   1.0000   1.0000   1.0001
     0.0000   0.0000   0.0000

          k = 0.0000 0.1776 0.0895 (  2492 PWs)   bands (ev):

   -37.5269 -11.4223 -11.3993 -11.3368  -1.3939   7.5327   8.9587   9.0947
     9.1140   9.1572   9.1630   9.1858   9.3634   9.7542  10.5119  10.7488
    14.7801  15.5273  15.8474

     occupation numbers 
     1.0000   1.0000   1.0000   1.0000   1.0000   1.0000   1.0000   1.0000
     1.0000   1.0000   1.0000   1.0000   1.0000   1.0000   1.0002   1.0092
     0.0000   0.0000   0.0000

          k = 0.0000 0.1776 0.1790 (  2485 PWs)   bands (ev):

   -37.5258 -11.4706 -11.3939 -11.3328  -1.2306   7.0862   8.9111   9.0646
     9.0656   9.1729   9.1850   9.1934   9.2620   9.7178  10.5522  11.1340
    14.9924  15.2460  15.6948

     occupation numbers 
     1.0000   1.0000   1.0000   1.0000   1.0000   1.0000   1.0000   1.0000
     1.0000   1.0000   1.0000   1.0000   1.0000   1.0000   1.0004   1.0572
     0.0000   0.0000   0.0000

          k = 0.0000 0.1776 0.2685 (  2478 PWs)   bands (ev):

   -37.5243 -11.5327 -11.3870 -11.3275  -1.0036   6.4812   8.8928   9.0214
     9.0353   9.1785   9.1980   9.2112   9.2180   9.8674  10.5902  11.3013
    14.8606  15.1778  16.1111

     occupation numbers 
     1.0000   1.0000   1.0000   1.0000   1.0000   1.0000   1.0000   1.0000
     1.0000   1.0000   1.0000   1.0000   1.0000   1.0000   1.0009   0.7722
     0.0000   0.0000   0.0000

          k = 0.0000 0.1776 0.3580 (  2462 PWs)   bands (ev):

   -37.5229 -11.5887 -11.3806 -11.3226  -0.7783   5.9400   8.9084   8.9901
     9.0125   9.1801   9.1814   9.2291   9.2299  10.0795  10.6077  11.2658
    14.6939  15.3874  16.1918

     occupation numbers 
     1.0000   1.0000   1.0000   1.0000   1.0000   1.0000   1.0000   1.0000
     1.0000   1.0000   1.0000   1.0000   1.0000   1.0000   1.0012   0.8579
     0.0000   0.0000   0.0000

          k = 0.0000 0.1776 0.4475 (  2468 PWs)   bands (ev):

   -37.5221 -11.6215 -11.3768 -11.3197  -0.6347   5.6243   8.9325   8.9657
     9.0002   9.1717   9.1807   9.2388   9.2417  10.2598  10.6092  11.1558
    14.6670  15.6087  15.8753

     occupation numbers 
     1.0000   1.0000   1.0000   1.0000   1.0000   1.0000   1.0000   1.0000
     1.0000   1.0000   1.0000   1.0000   1.0000   1.0000   1.0012   1.0388
     0.0000   0.0000   0.0000

          k = 0.0000 0.2665 0.0000 (  2469 PWs)   bands (ev):

   -37.5243 -11.4849 -11.3911 -11.3544  -1.2100   7.2833   8.9566   9.0844
     9.1120   9.1503   9.1648   9.1711   9.2987  10.0782  10.1796  10.5622
    14.4229  16.0825  16.4730

     occupation numbers 
     1.0000   1.0000   1.0000   1.0000   1.0000   1.0000   1.0000   1.0000
     1.0000   1.0000   1.0000   1.0000   1.0000   1.0000   1.0000   1.0005
     0.0000   0.0000   0.0000

          k = 0.0000 0.2665 0.0895 (  2479 PWs)   bands (ev):

   -37.5239 -11.4828 -11.4076 -11.3528  -1.1644   7.2444   8.9229   9.0770
     9.1023   9.1540   9.1671   9.1743   9.3083   9.6251  10.5480  10.5552
    14.6692  15.9455  15.9942

     occupation numbers 
     1.0000   1.0000   1.0000   1.0000   1.0000   1.0000   1.0000   1.0000
     1.0000   1.0000   1.0000   1.0000   1.0000   1.0000   1.0004   1.0005
     0.0000   0.0000   0.0000

          k = 0.0000 0.2665 0.1790 (  2473 PWs)   bands (ev):

   -37.5227 -11.4807 -11.4480 -11.3485  -1.0396   7.0765   8.8004   9.0569
     9.0595   9.1590   9.1815   9.1861   9.2912   9.3725  10.5032  10.7863
    15.1192  15.4895  16.0370

     occupation numbers 
     1.0000   1.0000   1.0000   1.0000   1.0000   1.0000   1.0000   1.0000
     1.0000   1.0000   1.0000   1.0000   1.0000   1.0000   1.0002   1.0144
     0.0000   0.0000   0.0000

          k = 0.0000 0.2665 0.2685 (  2479 PWs)   bands (ev):

   -37.5213 -11.5173 -11.4606 -11.3429  -0.8696   6.7370   8.7107   9.0088
     9.0393   9.1615   9.1975   9.2056   9.2241   9.4370  10.4301  10.8098
    15.2531  15.3444  16.4688

     occupation numbers 
     1.0000   1.0000   1.0000   1.0000   1.0000   1.0000   1.0000   1.0000
     1.0000   1.0000   1.0000   1.0000   1.0000   1.0000   1.0000   1.0186
     0.0000   0.0000   0.0000

          k = 0.0000 0.2665 0.3580 (  2471 PWs)   bands (ev):

   -37.5199 -11.5681 -11.4540 -11.3377  -0.7056   6.3627   8.7484   8.9693
     9.0220   9.1627   9.1857   9.2265   9.2270   9.5658  10.3492  10.6575
    15.2052  15.5517  16.6315

     occupation numbers 
     1.0000   1.0000   1.0000   1.0000   1.0000   1.0000   1.0000   1.0000
     1.0000   1.0000   1.0000   1.0000   1.0000   1.0000   1.0000   1.0026
     0.0000   0.0000   0.0000

          k = 0.0000 0.2665 0.4475 (  2481 PWs)   bands (ev):

   -37.5191 -11.5986 -11.4494 -11.3347  -0.6038   6.1298   8.8187   8.9309
     9.0121   9.1633   9.1757   9.2361   9.2404   9.7143  10.2950  10.4607
    15.2416  15.7182  16.5723

     occupation numbers 
     1.0000   1.0000   1.0000   1.0000   1.0000   1.0000   1.0000   1.0000
     1.0000   1.0000   1.0000   1.0000   1.0000   1.0000   1.0000   1.0001
     0.0000   0.0000   0.0000

          k = 0.0000 0.3553 0.0000 (  2479 PWs)   bands (ev):

   -37.5210 -11.5690 -11.3797 -11.3714  -0.9404   6.8425   8.9268   9.0573
     9.0689   9.1576   9.1579   9.1876   9.2565  10.0134  10.1181  10.6161
    14.2898  16.2778  16.6600

     occupation numbers 
     1.0000   1.0000   1.0000   1.0000   1.0000   1.0000   1.0000   1.0000
     1.0000   1.0000   1.0000   1.0000   1.0000   1.0000   1.0000   1.0013
     0.0000   0.0000   0.0000

          k = 0.0000 0.3553 0.0895 (  2470 PWs)   bands (ev):

   -37.5206 -11.5658 -11.3955 -11.3697  -0.9108   6.8672   8.8859   9.0557
     9.0639   9.1524   9.1661   9.1863   9.2602   9.6643  10.3272  10.5675
    14.6137  16.0789  16.1927

     occupation numbers 
     1.0000   1.0000   1.0000   1.0000   1.0000   1.0000   1.0000   1.0000
     1.0000   1.0000   1.0000   1.0000   1.0000   1.0000   1.0000   1.0006
     0.0000   0.0000   0.0000

          k = 0.0000 0.3553 0.1790 (  2481 PWs)   bands (ev):

   -37.5195 -11.5572 -11.4375 -11.3652  -0.8311   6.9168   8.7154   9.0374
     9.0508   9.1490   9.1792   9.1875   9.2710   9.3448  10.4218  10.4363
    15.2560  15.8687  15.8704

     occupation numbers 
     1.0000   1.0000   1.0000   1.0000   1.0000   1.0000   1.0000   1.0000
     1.0000   1.0000   1.0000   1.0000   1.0000   1.0000   1.0000   1.0000
     0.0000   0.0000   0.0000

          k = 0.0000 0.3553 0.2685 (  2484 PWs)   bands (ev):

   -37.5181 -11.5467 -11.4910 -11.3592  -0.7258   6.9193   8.4902   8.9919
     9.0432   9.1472   9.1956   9.1984   9.2377   9.2910  10.2624  10.3542
    15.3412  15.8257  16.5635

     occupation numbers 
     1.0000   1.0000   1.0000   1.0000   1.0000   1.0000   1.0000   1.0000
     1.0000   1.0000   1.0000   1.0000   1.0000   1.0000   1.0000   1.0000
     0.0000   0.0000   0.0000

          k = 0.0000 0.3553 0.3580 (  2488 PWs)   bands (ev):

   -37.5167 -11.5500 -11.5265 -11.3537  -0.6279   6.8276   8.4531   8.9347
     9.0350   9.1466   9.1892   9.2213   9.2276   9.3258  10.0999  10.1452
    15.5196  15.9080  17.1771

     occupation numbers 
     1.0000   1.0000   1.0000   1.0000   1.0000   1.0000   1.0000   1.0000
     1.0000   1.0000   1.0000   1.0000   1.0000   1.0000   1.0000   1.0000
     0.0000   0.0000   0.0000

          k = 0.0000 0.3553 0.4475 (  2483 PWs)   bands (ev):

   -37.5159 -11.5743 -11.5248 -11.3505  -0.5690   6.7305   8.5569   8.8634
     9.0297   9.1464   9.1794   9.2367   9.2389   9.3760   9.9309  10.0009
    15.7868  16.0081  17.2413

     occupation numbers 
     1.0000   1.0000   1.0000   1.0000   1.0000   1.0000   1.0000   1.0000
     1.0000   1.0000   1.0000   1.0000   1.0000   1.0000   1.0000   1.0000
     0.0000   0.0000   0.0000

          k = 0.0000 0.4441 0.0000 (  2469 PWs)   bands (ev):

   -37.5183 -11.6370 -11.3855 -11.3701  -0.7051   6.4812   8.8994   9.0314
     9.0369   9.1464   9.1643   9.2123   9.2552   9.8834  10.0528  10.6485
    14.5900  16.1267  16.8885

     occupation numbers 
     1.0000   1.0000   1.0000   1.0000   1.0000   1.0000   1.0000   1.0000
     1.0000   1.0000   1.0000   1.0000   1.0000   1.0000   1.0000   1.0022
     0.0000   0.0000   0.0000

          k = 0.0000 0.4441 0.0895 (  2479 PWs)   bands (ev):

   -37.5179 -11.6331 -11.3852 -11.3837  -0.6906   6.5348   8.8610   9.0307
     9.0382   9.1453   9.1668   9.2095   9.2570   9.6910  10.1133  10.5714
    14.9055  16.1036  16.1676

     occupation numbers 
     1.0000   1.0000   1.0000   1.0000   1.0000   1.0000   1.0000   1.0000
     1.0000   1.0000   1.0000   1.0000   1.0000   1.0000   1.0000   1.0006
     0.0000   0.0000   0.0000

          k = 0.0000 0.4441 0.1790 (  2484 PWs)   bands (ev):

   -37.5168 -11.6225 -11.4254 -11.3789  -0.6527   6.6876   8.7182   9.0177
     9.0416   9.1422   9.1752   9.2037   9.2606   9.4131  10.1236  10.3731
    15.4140  15.7369  16.2964

     occupation numbers 
     1.0000   1.0000   1.0000   1.0000   1.0000   1.0000   1.0000   1.0000
     1.0000   1.0000   1.0000   1.0000   1.0000   1.0000   1.0000   1.0000
     0.0000   0.0000   0.0000

          k = 0.0000 0.4441 0.2685 (  2487 PWs)   bands (ev):

   -37.5154 -11.6085 -11.4775 -11.3727  -0.6047   6.9132   8.4705   8.9749
     9.0459   9.1384   9.1911   9.1988   9.2556   9.2768  10.0055  10.1275
    15.2160  16.5043  16.6985

     occupation numbers 
     1.0000   1.0000   1.0000   1.0000   1.0000   1.0000   1.0000   1.0000
     1.0000   1.0000   1.0000   1.0000   1.0000   1.0000   1.0000   1.0000
     0.0000   0.0000   0.0000

          k = 0.0000 0.4441 0.3580 (  2479 PWs)   bands (ev):

   -37.5141 -11.5953 -11.5249 -11.3669  -0.5625   7.1509   8.2759   8.8847
     9.0497   9.1353   9.1903   9.2146   9.2297   9.2674   9.7795   9.9081
    15.4525  16.7403  17.5355

     occupation numbers 
     1.0000   1.0000   1.0000   1.0000   1.0000   1.0000   1.0000   1.0000
     1.0000   1.0000   1.0000   1.0000   1.0000   1.0000   1.0000   1.0000
     0.0000   0.0000   0.0000

          k = 0.0000 0.4441 0.4475 (  2488 PWs)   bands (ev):

   -37.5133 -11.5869 -11.5534 -11.3635  -0.5382   7.2971   8.2524   8.7498
     9.0517   9.1337   9.1803   9.2371   9.2392   9.2593   9.6013   9.7753
    15.8851  16.9076  17.7208

     occupation numbers 
     1.0000   1.0000   1.0000   1.0000   1.0000   1.0000   1.0000   1.0000
     1.0000   1.0000   1.0000   1.0000   1.0000   1.0000   1.0000   1.0000
     0.0000   0.0000   0.0000

          k = 0.0000 0.5329 0.0000 (  2478 PWs)   bands (ev):

   -37.5168 -11.6748 -11.3934 -11.3648  -0.5665   6.2798   8.8828   9.0112
     9.0261   9.1402   9.1679   9.2297   9.2631   9.8112   9.9687  10.6624
    15.0416  16.0451  16.9454

     occupation numbers 
     1.0000   1.0000   1.0000   1.0000   1.0000   1.0000   1.0000   1.0000
     1.0000   1.0000   1.0000   1.0000   1.0000   1.0000   1.0000   1.0028
     0.0000   0.0000   0.0000

          k = 0.0000 0.5329 0.0895 (  2479 PWs)   bands (ev):

   -37.5164 -11.6705 -11.3916 -11.3794  -0.5614   6.3446   8.8491   9.0128
     9.0285   9.1399   9.1691   9.2262   9.2635   9.6953   9.9788  10.5693
    15.3274  16.0063  16.1961

     occupation numbers 
     1.0000   1.0000   1.0000   1.0000   1.0000   1.0000   1.0000   1.0000
     1.0000   1.0000   1.0000   1.0000   1.0000   1.0000   1.0000   1.0006
     0.0000   0.0000   0.0000

          k = 0.0000 0.5329 0.1790 (  2484 PWs)   bands (ev):

   -37.5153 -11.6589 -11.4184 -11.3867  -0.5491   6.5346   8.7370   9.0060
     9.0357   9.1383   9.1740   9.2179   9.2619   9.4751   9.9519  10.3354
    15.2887  16.0606  16.5950

     occupation numbers 
     1.0000   1.0000   1.0000   1.0000   1.0000   1.0000   1.0000   1.0000
     1.0000   1.0000   1.0000   1.0000   1.0000   1.0000   1.0000   1.0000
     0.0000   0.0000   0.0000

          k = 0.0000 0.5329 0.2685 (  2488 PWs)   bands (ev):

   -37.5139 -11.6437 -11.4689 -11.3803  -0.5353   6.8364   8.5415   8.9649
     9.0472   9.1349   9.1862   9.2072   9.2502   9.3270   9.8057  10.0533
    15.0661  16.9718  17.1071

     occupation numbers 
     1.0000   1.0000   1.0000   1.0000   1.0000   1.0000   1.0000   1.0000
     1.0000   1.0000   1.0000   1.0000   1.0000   1.0000   1.0000   1.0000
     0.0000   0.0000   0.0000

          k = 0.0000 0.5329 0.3580 (  2490 PWs)   bands (ev):

   -37.5126 -11.6295 -11.5148 -11.3744  -0.5251   7.2245   8.3260   8.8360
     9.0605   9.1305   9.1918   9.2086   9.2270   9.2777   9.5815   9.8044
    15.3668  17.5381  17.7624

     occupation numbers 
     1.0000   1.0000   1.0000   1.0000   1.0000   1.0000   1.0000   1.0000
     1.0000   1.0000   1.0000   1.0000   1.0000   1.0000   1.0000   1.0000
     0.0000   0.0000   0.0000

          k = 0.0000 0.5329 0.4475 (  2489 PWs)   bands (ev):

   -37.5118 -11.6209 -11.5420 -11.3708  -0.5200   7.6268   8.1265   8.6257
     9.0700   9.1272   9.1776   9.2189   9.2353   9.2579   9.4545   9.6506
    15.9425  17.7473  17.9036

     occupation numbers 
     1.0000   1.0000   1.0000   1.0000   1.0000   1.0000   1.0000   1.0000
     1.0000   1.0000   1.0000   1.0000   1.0000   1.0000   1.0000   1.0000
     0.0000   0.0000   0.0000

          k = 0.0769 0.1332 0.0000 (  2487 PWs)   bands (ev):

   -37.5280 -11.4043 -11.3837 -11.3356  -1.5067   7.7650   8.9863   9.1181
     9.1407   9.1408   9.1461   9.1871   9.4182  10.0707  10.3915  10.4663
    14.6049  15.4795  16.5283

     occupation numbers 
     1.0000   1.0000   1.0000   1.0000   1.0000   1.0000   1.0000   1.0000
     1.0000   1.0000   1.0000   1.0000   1.0000   1.0000   1.0000   1.0001
     0.0000   0.0000   0.0000

          k = 0.0769 0.1332 0.0895 (  2487 PWs)   bands (ev):

   -37.5276 -11.4238 -11.3809 -11.3341  -1.4448   7.5847   8.9659   9.0963
     9.1141   9.1593   9.1642   9.1882   9.3600   9.8591  10.4564  10.8179
    14.6986  15.4399  15.8830

     occupation numbers 
     1.0000   1.0000   1.0000   1.0000   1.0000   1.0000   1.0000   1.0000
     1.0000   1.0000   1.0000   1.0000   1.0000   1.0000   1.0001   1.0203
     0.0000   0.0000   0.0000

          k = 0.0769 0.1332 0.1790 (  2491 PWs)   bands (ev):

   -37.5265 -11.4734 -11.3754 -11.3301  -1.2733   7.0736   8.9293   9.0620
     9.0696   9.1770   9.1868   9.1945   9.2560   9.8687  10.5230  11.2375
    14.8246  15.3645  15.4804

     occupation numbers 
     1.0000   1.0000   1.0000   1.0000   1.0000   1.0000   1.0000   1.0000
     1.0000   1.0000   1.0000   1.0000   1.0000   1.0000   1.0003   0.9182
     0.0000   0.0000   0.0000

          k = 0.0769 0.1332 0.2685 (  2474 PWs)   bands (ev):

   -37.5250 -11.5366 -11.3688 -11.3249  -1.0339   6.4200   8.9177   9.0235
     9.0348   9.1829   9.1980   9.2118   9.2174  10.0343  10.5979  11.4438
    14.6949  15.2180  15.8984

     occupation numbers 
     1.0000   1.0000   1.0000   1.0000   1.0000   1.0000   1.0000   1.0000
     1.0000   1.0000   1.0000   1.0000   1.0000   1.0000   1.0010   0.3897
     0.0000   0.0000   0.0000

          k = 0.0769 0.1332 0.3580 (  2474 PWs)   bands (ev):

   -37.5236 -11.5934 -11.3628 -11.3201  -0.7948   5.8482   8.9294   8.9938
     9.0107   9.1804   9.1844   9.2299   9.2305  10.2484  10.6531  11.4421
    14.5699  15.2924  16.1573

     occupation numbers 
     1.0000   1.0000   1.0000   1.0000   1.0000   1.0000   1.0000   1.0000
     1.0000   1.0000   1.0000   1.0000   1.0000   1.0000   1.0024   0.3938
     0.0000   0.0000   0.0000

          k = 0.0769 0.1332 0.4475 (  2468 PWs)   bands (ev):

   -37.5228 -11.6267 -11.3592 -11.3172  -0.6415   5.5163   8.9479   8.9717
     8.9979   9.1708   9.1849   9.2399   9.2418  10.4165  10.6784  11.3624
    14.5464  15.4164  15.8807

     occupation numbers 
[...]
     1.0000   0.8582   0.8096   0.7116   0.6691   0.5523   0.4422   0.0793
     0.0000   0.0000   0.0000

          k = 0.1539 0.5331 0.2687 (  2480 PWs)   bands (ev):

   -36.3266 -10.7993 -10.6322 -10.5842  -0.3616   7.2238   8.7537   9.3553
     9.7433  11.3009  11.3118  11.3398  11.3584  11.3966  11.4199  11.5117
    16.1688  16.7513  17.6063

     occupation numbers 
     1.0000   1.0000   1.0000   1.0000   1.0000   1.0000   1.0000   1.0000
     1.0000   0.8316   0.8052   0.7336   0.6838   0.5784   0.5144   0.2871
     0.0000   0.0000   0.0000

          k = 0.1539 0.5331 0.3582 (  2484 PWs)   bands (ev):

   -36.3251 -10.7834 -10.6825 -10.5758  -0.3689   7.5666   8.4721   9.2904
     9.5015  11.3079  11.3162  11.3345  11.3536  11.3872  11.4005  11.4404
    16.3557  17.3108  18.1919

     occupation numbers 
     1.0000   1.0000   1.0000   1.0000   1.0000   1.0000   1.0000   1.0000
     1.0000   0.8149   0.7943   0.7476   0.6968   0.6045   0.5677   0.4592
     0.0000   0.0000   0.0000

          k = 0.1539 0.5331 0.4478 (  2492 PWs)   bands (ev):

   -36.3242 -10.7738 -10.7122 -10.5707  -0.3741   7.9250   8.2279   8.9644
     9.5854  11.3094  11.3219  11.3323  11.3525  11.3792  11.3936  11.4062
    16.7260  17.3323  18.2426

     occupation numbers 
     1.0000   1.0000   1.0000   1.0000   1.0000   1.0000   1.0000   1.0000
     1.0000   0.8111   0.7800   0.7533   0.6998   0.6267   0.5867   0.5518
     0.0000   0.0000   0.0000

          k = 0.2309 0.3998 0.0000 (  2473 PWs)   bands (ev):

   -36.3315 -10.7836 -10.6063 -10.5228  -0.4869   6.9314   8.9813   9.6222
    10.5262  11.2609  11.3217  11.3470  11.3796  11.3987  11.5345  11.9816
    14.7485  15.3884  17.0452

     occupation numbers 
     1.0000   1.0000   1.0000   1.0000   1.0000   1.0000   1.0000   1.0000
     1.0002   0.9187   0.7807   0.7147   0.6256   0.5725   0.2409   0.0005
     0.0000   0.0000   0.0000

          k = 0.2309 0.3998 0.0896 (  2466 PWs)   bands (ev):

   -36.3310 -10.7793 -10.6037 -10.5394  -0.4778   6.9919   8.9973   9.4638
    10.4678  11.2662  11.3220  11.3443  11.3772  11.3970  11.5019  11.9212
    14.7624  15.8668  17.1301

     occupation numbers 
     1.0000   1.0000   1.0000   1.0000   1.0000   1.0000   1.0000   1.0000
     1.0001   0.9081   0.7798   0.7217   0.6323   0.5773   0.3084   0.0017
     0.0000   0.0000   0.0000

          k = 0.2309 0.3998 0.1791 (  2469 PWs)   bands (ev):

   -36.3298 -10.7677 -10.5972 -10.5831  -0.4543   7.1605   8.8718   9.3010
    10.2544  11.2787  11.3226  11.3384  11.3708  11.3921  11.4577  11.7432
    15.1476  16.7231  17.2909

     occupation numbers 
     1.0000   1.0000   1.0000   1.0000   1.0000   1.0000   1.0000   1.0000
     1.0000   0.8820   0.7783   0.7373   0.6498   0.5910   0.4143   0.0266
     0.0000   0.0000   0.0000

          k = 0.2309 0.3998 0.2687 (  2478 PWs)   bands (ev):

   -36.3282 -10.7525 -10.6411 -10.5870  -0.4254   7.3984   8.5184   9.4113
     9.8871  11.2933  11.3230  11.3338  11.3627  11.3875  11.4307  11.5774
    15.8056  17.1119  17.7532

     occupation numbers 
     1.0000   1.0000   1.0000   1.0000   1.0000   1.0000   1.0000   1.0000
     1.0000   0.8495   0.7772   0.7493   0.6721   0.6036   0.4851   0.1674
     0.0000   0.0000   0.0000

          k = 0.2309 0.3998 0.3582 (  2474 PWs)   bands (ev):

   -36.3267 -10.7386 -10.6928 -10.5783  -0.4008   7.6234   8.2757   9.4678
     9.5620  11.3059  11.3249  11.3333  11.3571  11.3885  11.4110  11.4793
    16.4719  17.1394  17.8819

     occupation numbers 
     1.0000   1.0000   1.0000   1.0000   1.0000   1.0000   1.0000   1.0000
     1.0000   0.8198   0.7724   0.7509   0.6872   0.6010   0.5387   0.3607
     0.0000   0.0000   0.0000

          k = 0.2309 0.3998 0.4478 (  2484 PWs)   bands (ev):

   -36.3258 -10.7303 -10.7231 -10.5731  -0.3870   7.7056   8.2765   9.1442
     9.6572  11.3121  11.3264  11.3370  11.3603  11.3904  11.4000  11.4281
    16.8264  17.1027  17.9096

     occupation numbers 
     1.0000   1.0000   1.0000   1.0000   1.0000   1.0000   1.0000   1.0000
     1.0000   0.8047   0.7685   0.7410   0.6786   0.5957   0.5690   0.4919
     0.0000   0.0000   0.0000

          k = 0.2309 0.4887 0.0000 (  2479 PWs)   bands (ev):

   -36.3296 -10.7992 -10.6465 -10.5164  -0.3392   6.9453   8.5192   9.5741
    10.5808  11.2666  11.3096  11.3517  11.3731  11.4118  11.5277  12.1040
    14.9946  15.0500  16.8853

     occupation numbers 
     1.0000   1.0000   1.0000   1.0000   1.0000   1.0000   1.0000   1.0000
     1.0005   0.9073   0.8106   0.7019   0.6434   0.5366   0.2542   0.0000
     0.0000   0.0000   0.0000

          k = 0.2309 0.4887 0.0896 (  2474 PWs)   bands (ev):

   -36.3292 -10.7946 -10.6436 -10.5324  -0.3408   7.0101   8.5698   9.4417
    10.4905  11.2716  11.3100  11.3492  11.3715  11.4095  11.5017  11.9535
    15.0282  15.6087  16.9948

     occupation numbers 
     1.0000   1.0000   1.0000   1.0000   1.0000   1.0000   1.0000   1.0000
     1.0001   0.8970   0.8097   0.7086   0.6478   0.5428   0.3089   0.0009
     0.0000   0.0000   0.0000

          k = 0.2309 0.4887 0.1791 (  2471 PWs)   bands (ev):

   -36.3280 -10.7825 -10.6357 -10.5751  -0.3456   7.1878   8.6845   9.1664
    10.2037  11.2835  11.3111  11.3426  11.3667  11.4030  11.4567  11.6952
    15.5343  16.5150  17.2604

     occupation numbers 
     1.0000   1.0000   1.0000   1.0000   1.0000   1.0000   1.0000   1.0000
     1.0000   0.8715   0.8070   0.7263   0.6610   0.5607   0.4167   0.0487
     0.0000   0.0000   0.0000

          k = 0.2309 0.4887 0.2687 (  2476 PWs)   bands (ev):

   -36.3264 -10.7665 -10.6318 -10.6236  -0.3536   7.4382   8.6038   9.1401
     9.7711  11.2967  11.3136  11.3347  11.3595  11.3935  11.4230  11.5289
    16.2276  17.1462  17.7012

     occupation numbers 
     1.0000   1.0000   1.0000   1.0000   1.0000   1.0000   1.0000   1.0000
     1.0000   0.8416   0.8008   0.7472   0.6807   0.5870   0.5059   0.2519
     0.0000   0.0000   0.0000

          k = 0.2309 0.4887 0.3582 (  2486 PWs)   bands (ev):

   -36.3249 -10.7518 -10.6809 -10.6148  -0.3626   7.7152   8.3599   9.2907
     9.4065  11.3049  11.3197  11.3296  11.3518  11.3837  11.4013  11.4480
    16.6972  17.2921  17.9353

     occupation numbers 
     1.0000   1.0000   1.0000   1.0000   1.0000   1.0000   1.0000   1.0000
     1.0000   0.8222   0.7855   0.7604   0.7016   0.6143   0.5655   0.4394
     0.0000   0.0000   0.0000

          k = 0.2309 0.4887 0.4478 (  2487 PWs)   bands (ev):

   -36.3240 -10.7429 -10.7106 -10.6088  -0.3687   7.9624   8.1823   9.0081
     9.5543  11.3070  11.3258  11.3300  11.3476  11.3731  11.3937  11.4114
    16.7297  17.2826  18.1374

     occupation numbers 
     1.0000   1.0000   1.0000   1.0000   1.0000   1.0000   1.0000   1.0000
     1.0000   0.8171   0.7701   0.7594   0.7130   0.6436   0.5865   0.5377
     0.0000   0.0000   0.0000

          k = 0.2309 0.5776 0.0000 (  2488 PWs)   bands (ev):

   -36.3290 -10.8026 -10.6632 -10.5140  -0.2852   6.9793   8.3246   9.5579
    10.5977  11.2698  11.3043  11.3539  11.3706  11.4156  11.5271  12.1430
    14.9308  15.2337  16.5639

     occupation numbers 
     1.0000   1.0000   1.0000   1.0000   1.0000   1.0000   1.0000   1.0000
     1.0006   0.9006   0.8235   0.6961   0.6503   0.5261   0.2554   0.0000
     0.0000   0.0000   0.0000

          k = 0.2309 0.5776 0.0896 (  2471 PWs)   bands (ev):

   -36.3285 -10.7980 -10.6601 -10.5299  -0.2907   7.0418   8.3907   9.4336
    10.4984  11.2749  11.3045  11.3516  11.3692  11.4129  11.5044  11.9570
    15.2906  15.4837  16.7074

     occupation numbers 
     1.0000   1.0000   1.0000   1.0000   1.0000   1.0000   1.0000   1.0000
     1.0001   0.8901   0.8231   0.7021   0.6541   0.5335   0.3030   0.0009
     0.0000   0.0000   0.0000

          k = 0.2309 0.5776 0.1791 (  2471 PWs)   bands (ev):

   -36.3273 -10.7857 -10.6518 -10.5720  -0.3061   7.2094   8.5804   9.1429
    10.1873  11.2871  11.3050  11.3456  11.3650  11.4052  11.4616  11.6726
    16.0059  16.1498  17.1241

     occupation numbers 
     1.0000   1.0000   1.0000   1.0000   1.0000   1.0000   1.0000   1.0000
     1.0000   0.8635   0.8218   0.7183   0.6656   0.5547   0.4043   0.0633
     0.0000   0.0000   0.0000

          k = 0.2309 0.5776 0.2687 (  2478 PWs)   bands (ev):

   -36.3257 -10.7696 -10.6412 -10.6260  -0.3276   7.4369   8.7112   8.9832
     9.7351  11.3011  11.3062  11.3380  11.3584  11.3932  11.4262  11.5089
    16.6339  16.8608  17.6809

     occupation numbers 
     1.0000   1.0000   1.0000   1.0000   1.0000   1.0000   1.0000   1.0000
     1.0000   0.8312   0.8189   0.7385   0.6839   0.5878   0.4972   0.2931
     0.0000   0.0000   0.0000

          k = 0.2309 0.5776 0.3582 (  2486 PWs)   bands (ev):

   -36.3242 -10.7549 -10.6764 -10.6298  -0.3486   7.6813   8.4837   9.2223
     9.3453  11.3051  11.3155  11.3323  11.3500  11.3786  11.4031  11.4358
    16.6743  17.3024  18.0679

     occupation numbers 
     1.0000   1.0000   1.0000   1.0000   1.0000   1.0000   1.0000   1.0000
     1.0000   0.8215   0.7962   0.7534   0.7066   0.6283   0.5604   0.4714
     0.0000   0.0000   0.0000

          k = 0.2309 0.5776 0.4478 (  2487 PWs)   bands (ev):

   -36.3234 -10.7461 -10.7054 -10.6235  -0.3617   7.8868   8.3151   8.9867
     9.5159  11.3048  11.3241  11.3301  11.3418  11.3675  11.3924  11.4062
    16.4955  17.3744  18.3733

     occupation numbers 
     1.0000   1.0000   1.0000   1.0000   1.0000   1.0000   1.0000   1.0000
     1.0000   0.8222   0.7745   0.7591   0.7284   0.6588   0.5901   0.5520
     0.0000   0.0000   0.0000

          k = 0.3078 0.5331 0.0000 (  2479 PWs)   bands (ev):

   -36.3287 -10.7704 -10.7057 -10.5129  -0.2612   7.2459   7.9270   9.5570
    10.6179  11.2682  11.3032  11.3524  11.3710  11.4150  11.5420  12.2119
    14.7762  15.3618  16.2323

     occupation numbers 
     1.0000   1.0000   1.0000   1.0000   1.0000   1.0000   1.0000   1.0000
     1.0009   0.9040   0.8262   0.7001   0.6493   0.5277   0.2269   0.0000
     0.0000   0.0000   0.0000

          k = 0.3078 0.5331 0.0896 (  2478 PWs)   bands (ev):

   -36.3282 -10.7660 -10.7023 -10.5287  -0.2684   7.2961   8.0122   9.4314
    10.5167  11.2734  11.3033  11.3503  11.3696  11.4120  11.5167  11.9959
    15.1787  15.6351  16.3662

     occupation numbers 
     1.0000   1.0000   1.0000   1.0000   1.0000   1.0000   1.0000   1.0000
     1.0001   0.8932   0.8258   0.7057   0.6531   0.5360   0.2766   0.0004
     0.0000   0.0000   0.0000

          k = 0.3078 0.5331 0.1791 (  2466 PWs)   bands (ev):

   -36.3270 -10.7542 -10.6931 -10.5706  -0.2883   7.4183   8.2711   9.1323
    10.1992  11.2861  11.3038  11.3447  11.3655  11.4034  11.4693  11.6828
    15.9603  16.3654  16.7781

     occupation numbers 
     1.0000   1.0000   1.0000   1.0000   1.0000   1.0000   1.0000   1.0000
     1.0000   0.8657   0.8246   0.7208   0.6644   0.5596   0.3852   0.0563
     0.0000   0.0000   0.0000

          k = 0.3078 0.5331 0.2687 (  2471 PWs)   bands (ev):

   -36.3254 -10.7391 -10.6806 -10.6248  -0.3153   7.5693   8.6228   8.8551
     9.7439  11.3000  11.3059  11.3374  11.3587  11.3902  11.4300  11.5108
    16.5600  17.3103  17.4135

     occupation numbers 
     1.0000   1.0000   1.0000   1.0000   1.0000   1.0000   1.0000   1.0000
     1.0000   0.8337   0.8197   0.7400   0.6830   0.5961   0.4870   0.2891
     0.0000   0.0000   0.0000

          k = 0.3078 0.5331 0.3582 (  2477 PWs)   bands (ev):

   -36.3239 -10.7257 -10.6742 -10.6683  -0.3410   7.7256   8.4914   9.1601
     9.3254  11.3031  11.3174  11.3311  11.3492  11.3742  11.4043  11.4362
    16.5756  17.5939  17.9661

     occupation numbers 
     1.0000   1.0000   1.0000   1.0000   1.0000   1.0000   1.0000   1.0000
     1.0000   0.8263   0.7913   0.7564   0.7087   0.6406   0.5572   0.4702
     0.0000   0.0000   0.0000

          k = 0.3078 0.5331 0.4478 (  2485 PWs)   bands (ev):

   -36.3231 -10.7179 -10.7030 -10.6610  -0.3568   7.8456   8.3541   9.0313
     9.4874  11.3027  11.3267  11.3283  11.3377  11.3631  11.3914  11.4073
    16.2451  17.5716  18.4049

     occupation numbers 
     1.0000   1.0000   1.0000   1.0000   1.0000   1.0000   1.0000   1.0000
     1.0000   0.8274   0.7678   0.7636   0.7391   0.6710   0.5929   0.5488
     0.0000   0.0000   0.0000

     the Fermi energy is    11.4629 ev

     Forces acting on atoms (cartesian axes, Ry/au):

     atom    1 type  1   force =    -0.00000000   -0.00000000   -0.00000000
     atom    2 type  2   force =     0.00000000    0.00000000    0.00000000
     atom    3 type  3   force =    -0.00000000   -0.00000000   -0.00000000
     The non-local contrib.  to forces
     atom    1 type  1   force =     0.00000000    0.00000000    0.00000000
     atom    2 type  2   force =     0.00000000    0.00000000    0.00000000
     atom    3 type  3   force =     0.00000000    0.00000000    0.00000000
     The ionic contribution  to forces
     atom    1 type  1   force =     0.00000000   -0.00000000    0.00000000
     atom    2 type  2   force =     0.00000000   -0.00000000    0.00000000
     atom    3 type  3   force =     0.00000000   -0.00000000    0.00000000
     The local contribution  to forces
     atom    1 type  1   force =     0.00000000   -0.00000000    0.00000000
     atom    2 type  2   force =     0.00000000    0.00000000    0.00000000
     atom    3 type  3   force =     0.00000000    0.00000000    0.00000000
     The core correction contribution to forces
     atom    1 type  1   force =     0.00000000   -0.00000000    0.00000000
     atom    2 type  2   force =     0.00000000    0.00000000    0.00000000
     atom    3 type  3   force =     0.00000000   -0.00000000    0.00000000
     The Hubbard contrib.    to forces
     atom    1 type  1   force =     0.00000000    0.00000000    0.00000000
     atom    2 type  2   force =     0.00000000    0.00000000    0.00000000
     atom    3 type  3   force =     0.00000000    0.00000000    0.00000000
     The SCF correction term to forces
     atom    1 type  1   force =     0.00000000    0.00000000    0.00000000
     atom    2 type  2   force =     0.00000000    0.00000000    0.00000000
     atom    3 type  3   force =     0.00000000    0.00000000    0.00000000

     Total force =     0.000000     Total SCF correction =     0.000000


     Computing stress (Cartesian axis) and pressure

          total   stress  (Ry/bohr**3)                   (kbar)     P=       -0.94
  -0.00000412  -0.00000000  -0.00000000           -0.61       -0.00       -0.00
  -0.00000000  -0.00000412  -0.00000000           -0.00       -0.61       -0.00
  -0.00000000  -0.00000000  -0.00001102           -0.00       -0.00       -1.62

     kinetic stress (kbar)   9335.96     -0.00      0.00
                               -0.00   9335.96      0.00
                                0.00      0.00   9257.68

     local   stress (kbar)  -2224.06      0.00      0.00
                                0.00  -2224.06      0.00
                                0.00      0.00   6279.83

     nonloc. stress (kbar)  13521.86     -0.00      0.00
                               -0.00  13521.86      0.00
                                0.00      0.00  13515.06

     hartree stress (kbar)  22709.74     -0.00     -0.00
                               -0.00  22709.74      0.00
                               -0.00      0.00  18446.26

     exc-cor stress (kbar)   5740.47     -0.00     -0.00
                               -0.00   5740.47      0.00
                               -0.00      0.00   5739.64

     corecor stress (kbar) -11679.45      0.00     -0.00
                                0.00 -11679.45      0.00
                               -0.00      0.00 -11680.54

     ewald   stress (kbar) -37405.13      0.00     -0.00
                                0.00 -37405.13      0.00
                               -0.00      0.00 -41559.57

     hubbard stress (kbar)      0.00      0.00      0.00
                                0.00      0.00      0.00
                                0.00      0.00      0.00

     DFT-D   stress (kbar)      0.00      0.00      0.00
                                0.00      0.00      0.00
                                0.00      0.00      0.00

     XDM     stress (kbar)      0.00      0.00      0.00
                                0.00      0.00      0.00
                                0.00      0.00      0.00

     dft-nl  stress (kbar)      0.00      0.00      0.00
                                0.00      0.00      0.00
                                0.00      0.00      0.00

     TS-vdW  stress (kbar)      0.00      0.00      0.00
                                0.00      0.00      0.00
                                0.00      0.00      0.00

     MDB     stress (kbar)      0.00      0.00      0.00
                                0.00      0.00      0.00
                                0.00      0.00      0.00

     3D-RISM stress (kbar)      0.00      0.00      0.00
                                0.00      0.00      0.00
                                0.00      0.00      0.00

     Message from routine bfgs:
     history already reset at previous step: exiting
     Energy error            =      1.0E-05 Ry
     Gradient error          =      5.5E-36 Ry/Bohr
     Cell gradient error     =      1.6E+00 kbar

     bfgs failed after  11 scf cycles and   3 bfgs steps, convergence not achieved
     (criteria: energy <  3.0E-05 Ry, force <  1.0E-04 Ry/Bohr, cell <  5.0E-01 kbar)

     End of BFGS Geometry Optimization

     Final enthalpy           =    -922.3077656950 Ry

     File ./out/aiida.bfgs deleted, as requested
Begin final coordinates
     new unit-cell volume =    315.56582 a.u.^3 (    46.76203 Ang^3 )
     density =      8.77913 g/cm^3

CELL_PARAMETERS (angstrom)
   3.760399374  -0.000000000   0.000000000
  -1.880199687   3.256601386  -0.000000000
   0.000000000  -0.000000000   3.818517474

ATOMIC_POSITIONS (angstrom)
Er            0.0000000000        0.0000000000        0.0000000000
H             1.8801996869        1.0855337953        0.0000000000
Se            0.0000000000        2.1710675907        1.9092587371
End final coordinates



     Writing config-only to output data dir ./out/aiida.save/

     Writing all to output data dir ./out/aiida.save/

     init_run     :      6.69s CPU      8.10s WALL (       1 calls)
     electrons    :    774.84s CPU   1108.53s WALL (      11 calls)
     forces       :      2.10s CPU      2.67s WALL (      11 calls)
     stress       :     29.77s CPU     30.64s WALL (      11 calls)

     Called by init_run:
     wfcinit      :      0.01s CPU      0.01s WALL (       1 calls)
     potinit      :      2.52s CPU      2.82s WALL (       1 calls)
     hinit0       :      4.02s CPU      4.97s WALL (       1 calls)

     Called by electrons:
     v_of_rho     :      0.12s CPU      0.13s WALL (       1 calls)
     v_h          :      0.00s CPU      0.00s WALL (       1 calls)
     v_xc         :      0.12s CPU      0.13s WALL (       1 calls)
     newd         :      0.10s CPU      0.25s WALL (       1 calls)
     PAW_pot      :      0.30s CPU      0.33s WALL (       1 calls)

     Called by c_bands:

     Called by sum_band:

     Called by *egterg:

     Called by h_psi:

     General routines
     fft          :      0.95s CPU      1.87s WALL (      45 calls)
     ffts         :      0.46s CPU      0.71s WALL (       2 calls)
     interpolate  :      0.46s CPU      0.71s WALL (       2 calls)
     davcio       :      0.00s CPU      0.03s WALL (      32 calls)

     Parallel routines

     PAW routines
     PAW_pot      :      0.30s CPU      0.33s WALL (       1 calls)
     PAW_symme    :      0.00s CPU      0.01s WALL (       1 calls)

     PWSCF        :  14m 9.94s CPU  20m 1.73s WALL


   This run was terminated on:   0:31:26  14May2024            

=------------------------------------------------------------------------------=
   JOB DONE.
=------------------------------------------------------------------------------=
