
     Program PWSCF v.7.2 starts on 12Dec2023 at 17:15: 9 

     This program is part of the open-source Quantum ESPRESSO suite
     for quantum simulation of materials; please cite
         "P. Giannozzi et al., J. Phys.:Condens. Matter 21 395502 (2009);
         "P. Giannozzi et al., J. Phys.:Condens. Matter 29 465901 (2017);
         "P. Giannozzi et al., J. Chem. Phys. 152 154105 (2020);
          URL http://www.quantum-espresso.org", 
     in publications or presentations arising from this work. More details at
     http://www.quantum-espresso.org/quote

     Parallel version (MPI), running on    16 processors

     MPI processes distributed on     1 nodes
     226438 MiB available memory on the printing compute node when the environment starts

     Reading input from aiida.in

     Current dimensions of program PWSCF are:
     Max number of different atomic species (ntypx) = 10
     Max number of k-points (npk) =  40000
     Max angular momentum in pseudopotentials (lmaxx) =  4
     file O.pbe-n-kjpaw_psl.0.1.UPF: wavefunction(s)  2P renormalized
     Message from routine setup:
     using ibrav=0 with symmetry is DISCOURAGED, use correct ibrav instead

     R & G space division:  proc/nbgrp/npool/nimage =      16
     Subspace diagonalization in iterative solution of the eigenvalue problem:
     a serial algorithm will be used


     Parallelization info
     --------------------
     sticks:   dense  smooth     PW     G-vecs:    dense   smooth      PW
     Min         177      89     25                 7111     2521     389
     Max         178      91     27                 7114     2522     392
     Sum        2845    1433    421               113801    40339    6235

     Using Slab Decomposition



     bravais-lattice index     =            0
     lattice parameter (alat)  =       9.4486  a.u.
     unit-cell volume          =     843.5418 (a.u.)^3
     number of atoms/cell      =            2
     number of atomic types    =            1
     number of electrons       =        12.00
     number of Kohn-Sham states=           10
     kinetic-energy cutoff     =      50.0000  Ry
     charge density cutoff     =     400.0000  Ry
     scf convergence threshold =      4.0E-10
     mixing beta               =       0.4000
     number of iterations used =            8  plain     mixing
     energy convergence thresh.=      2.0E-05
     force convergence thresh. =      1.0E-04
     press convergence thresh. =      5.0E-01
     Exchange-correlation= SLA  PW   PBX  PBC
                           (   1   4   3   4   0   0   0)
     nstep                     =           50


     celldm(1)=   9.448631  celldm(2)=   0.000000  celldm(3)=   0.000000
     celldm(4)=   0.000000  celldm(5)=   0.000000  celldm(6)=   0.000000

     crystal axes: (cart. coord. in units of alat)
               a(1) = (   1.000000   0.000000   0.000000 )  
               a(2) = (   0.000000   1.000000   0.000000 )  
               a(3) = (   0.000000   0.000000   1.000000 )  

     reciprocal axes: (cart. coord. in units 2 pi/alat)
               b(1) = (  1.000000  0.000000  0.000000 )  
               b(2) = (  0.000000  1.000000  0.000000 )  
               b(3) = (  0.000000  0.000000  1.000000 )  


     PseudoPot. # 1 for O  read from file:
     ./pseudo/O.pbe-n-kjpaw_psl.0.1.UPF
     MD5 check sum: 0234752ac141de4415c5fc33072bef88
     Pseudo is Projector augmented-wave + core cor, Zval =  6.0
     Generated using "atomic" code by A. Dal Corso  v.5.0.99 svn rev. 10869
     Shape of augmentation charge: BESSEL
     Using radial grid of 1095 points,  4 beta functions with: 
                l(1) =   0
                l(2) =   0
                l(3) =   1
                l(4) =   1
     Q(r) pseudized with 0 coefficients 


     atomic species   valence    mass     pseudopotential
        O              6.00    15.99940     O ( 1.00)

      8 Sym. Ops. (no inversion) found


                                    s                        frac. trans.

      isym =  1     identity                                     

 cryst.   s( 1) = (     1          0          0      )
                  (     0          1          0      )
                  (     0          0          1      )

 cart.    s( 1) = (  1.0000000  0.0000000  0.0000000 )
                  (  0.0000000  1.0000000  0.0000000 )
                  (  0.0000000  0.0000000  1.0000000 )


      isym =  2     180 deg rotation - cart. axis [1,0,0]        

 cryst.   s( 2) = (     1          0          0      )
                  (     0         -1          0      )
                  (     0          0         -1      )

 cart.    s( 2) = (  1.0000000  0.0000000  0.0000000 )
                  (  0.0000000 -1.0000000  0.0000000 )
                  (  0.0000000  0.0000000 -1.0000000 )


      isym =  3      90 deg rotation - cart. axis [-1,0,0]       

 cryst.   s( 3) = (     1          0          0      )
                  (     0          0         -1      )
                  (     0          1          0      )

 cart.    s( 3) = (  1.0000000  0.0000000  0.0000000 )
                  (  0.0000000  0.0000000  1.0000000 )
                  (  0.0000000 -1.0000000  0.0000000 )


      isym =  4      90 deg rotation - cart. axis [1,0,0]        

 cryst.   s( 4) = (     1          0          0      )
                  (     0          0          1      )
                  (     0         -1          0      )

 cart.    s( 4) = (  1.0000000  0.0000000  0.0000000 )
                  (  0.0000000  0.0000000 -1.0000000 )
                  (  0.0000000  1.0000000  0.0000000 )


      isym =  5     inv. 180 deg rotation - cart. axis [0,0,1]   

 cryst.   s( 5) = (     1          0          0      )
                  (     0          1          0      )
                  (     0          0         -1      )

 cart.    s( 5) = (  1.0000000  0.0000000  0.0000000 )
                  (  0.0000000  1.0000000  0.0000000 )
                  (  0.0000000  0.0000000 -1.0000000 )


      isym =  6     inv. 180 deg rotation - cart. axis [0,1,0]   

 cryst.   s( 6) = (     1          0          0      )
                  (     0         -1          0      )
                  (     0          0          1      )

 cart.    s( 6) = (  1.0000000  0.0000000  0.0000000 )
                  (  0.0000000 -1.0000000  0.0000000 )
                  (  0.0000000  0.0000000  1.0000000 )


      isym =  7     inv. 180 deg rotation - cart. axis [0,1,1]   

 cryst.   s( 7) = (     1          0          0      )
                  (     0          0         -1      )
                  (     0         -1          0      )

 cart.    s( 7) = (  1.0000000  0.0000000  0.0000000 )
                  (  0.0000000  0.0000000 -1.0000000 )
                  (  0.0000000 -1.0000000  0.0000000 )


      isym =  8     inv. 180 deg rotation - cart. axis [0,1,-1]  

 cryst.   s( 8) = (     1          0          0      )
                  (     0          0          1      )
                  (     0          1          0      )

 cart.    s( 8) = (  1.0000000  0.0000000  0.0000000 )
                  (  0.0000000  0.0000000  1.0000000 )
                  (  0.0000000  1.0000000  0.0000000 )


   Cartesian axes

     site n.     atom                  positions (alat units)
         1           O   tau(   1) = (   0.0000000   0.0000000   0.0000000  )
         2           O   tau(   2) = (   0.4512000   0.0000000   0.0000000  )

   Crystallographic axes

     site n.     atom                  positions (cryst. coord.)
         1           O   tau(   1) = (  0.0000000  0.0000000  0.0000000  )
         2           O   tau(   2) = (  0.4512000  0.0000000  0.0000000  )

     number of k points=    75  Marzari-Vanderbilt smearing, width (Ry)=  0.0100
                       cart. coord. in units 2pi/alat
        k(    1) = (   0.0000000   0.0000000   0.0000000), wk =   0.0027435
        k(    2) = (   0.0000000   0.0000000   0.1111111), wk =   0.0109739
        k(    3) = (   0.0000000   0.0000000   0.2222222), wk =   0.0109739
        k(    4) = (   0.0000000   0.0000000   0.3333333), wk =   0.0109739
        k(    5) = (   0.0000000   0.0000000   0.4444444), wk =   0.0109739
        k(    6) = (   0.0000000   0.1111111   0.1111111), wk =   0.0109739
        k(    7) = (   0.0000000   0.1111111   0.2222222), wk =   0.0219479
        k(    8) = (   0.0000000   0.1111111   0.3333333), wk =   0.0219479
        k(    9) = (   0.0000000   0.1111111   0.4444444), wk =   0.0219479
        k(   10) = (   0.0000000   0.2222222   0.2222222), wk =   0.0109739
        k(   11) = (   0.0000000   0.2222222   0.3333333), wk =   0.0219479
        k(   12) = (   0.0000000   0.2222222   0.4444444), wk =   0.0219479
        k(   13) = (   0.0000000   0.3333333   0.3333333), wk =   0.0109739
        k(   14) = (   0.0000000   0.3333333   0.4444444), wk =   0.0219479
        k(   15) = (   0.0000000   0.4444444   0.4444444), wk =   0.0109739
        k(   16) = (   0.1111111   0.1111111   0.1111111), wk =   0.0219479
        k(   17) = (   0.1111111   0.1111111   0.2222222), wk =   0.0438957
        k(   18) = (   0.1111111   0.1111111   0.3333333), wk =   0.0438957
        k(   19) = (   0.1111111   0.1111111   0.4444444), wk =   0.0438957
        k(   20) = (   0.1111111   0.2222222   0.2222222), wk =   0.0219479
        k(   21) = (   0.1111111   0.2222222   0.3333333), wk =   0.0438957
        k(   22) = (   0.1111111   0.2222222   0.4444444), wk =   0.0438957
        k(   23) = (   0.1111111   0.3333333   0.3333333), wk =   0.0219479
        k(   24) = (   0.1111111   0.3333333   0.4444444), wk =   0.0438957
        k(   25) = (   0.1111111   0.4444444   0.4444444), wk =   0.0219479
        k(   26) = (   0.2222222   0.2222222   0.2222222), wk =   0.0219479
        k(   27) = (   0.2222222   0.2222222   0.3333333), wk =   0.0438957
        k(   28) = (   0.2222222   0.2222222   0.4444444), wk =   0.0438957
        k(   29) = (   0.2222222   0.3333333   0.3333333), wk =   0.0219479
        k(   30) = (   0.2222222   0.3333333   0.4444444), wk =   0.0438957
        k(   31) = (   0.2222222   0.4444444   0.4444444), wk =   0.0219479
        k(   32) = (   0.3333333   0.3333333   0.3333333), wk =   0.0219479
        k(   33) = (   0.3333333   0.3333333   0.4444444), wk =   0.0438957
        k(   34) = (   0.3333333   0.4444444   0.4444444), wk =   0.0219479
        k(   35) = (   0.4444444   0.4444444   0.4444444), wk =   0.0219479
        k(   36) = (   0.1111111   0.0000000   0.0000000), wk =   0.0054870
        k(   37) = (   0.2222222   0.0000000   0.0000000), wk =   0.0054870
        k(   38) = (   0.3333333   0.0000000   0.0000000), wk =   0.0054870
        k(   39) = (   0.4444444   0.0000000   0.0000000), wk =   0.0054870
        k(   40) = (   0.1111111  -0.1111111   0.0000000), wk =   0.0219479
        k(   41) = (   0.2222222  -0.1111111   0.0000000), wk =   0.0219479
        k(   42) = (   0.1111111   0.2222222   0.0000000), wk =   0.0219479
        k(   43) = (   0.3333333  -0.1111111   0.0000000), wk =   0.0219479
        k(   44) = (   0.1111111   0.3333333   0.0000000), wk =   0.0219479
        k(   45) = (   0.4444444  -0.1111111   0.0000000), wk =   0.0219479
        k(   46) = (   0.1111111   0.4444444   0.0000000), wk =   0.0219479
        k(   47) = (   0.2222222  -0.2222222   0.0000000), wk =   0.0219479
        k(   48) = (   0.3333333  -0.2222222   0.0000000), wk =   0.0219479
        k(   49) = (   0.2222222   0.3333333   0.0000000), wk =   0.0219479
        k(   50) = (   0.4444444  -0.2222222   0.0000000), wk =   0.0219479
        k(   51) = (   0.2222222   0.4444444   0.0000000), wk =   0.0219479
        k(   52) = (   0.3333333  -0.3333333   0.0000000), wk =   0.0219479
        k(   53) = (   0.4444444  -0.3333333   0.0000000), wk =   0.0219479
        k(   54) = (   0.3333333   0.4444444   0.0000000), wk =   0.0219479
        k(   55) = (   0.4444444  -0.4444444   0.0000000), wk =   0.0219479
        k(   56) = (   0.2222222  -0.1111111   0.1111111), wk =   0.0219479
        k(   57) = (   0.3333333  -0.1111111   0.1111111), wk =   0.0219479
        k(   58) = (   0.4444444  -0.1111111   0.1111111), wk =   0.0219479
        k(   59) = (   0.2222222  -0.2222222   0.1111111), wk =   0.0438957
        k(   60) = (   0.3333333  -0.2222222   0.1111111), wk =   0.0438957
        k(   61) = (   0.2222222   0.3333333   0.1111111), wk =   0.0438957
        k(   62) = (   0.4444444  -0.2222222   0.1111111), wk =   0.0438957
        k(   63) = (   0.2222222   0.4444444   0.1111111), wk =   0.0438957
        k(   64) = (   0.3333333  -0.3333333   0.1111111), wk =   0.0438957
        k(   65) = (   0.4444444  -0.3333333   0.1111111), wk =   0.0438957
        k(   66) = (   0.3333333   0.4444444   0.1111111), wk =   0.0438957
        k(   67) = (   0.4444444  -0.4444444   0.1111111), wk =   0.0438957
        k(   68) = (   0.3333333  -0.2222222   0.2222222), wk =   0.0219479
        k(   69) = (   0.4444444  -0.2222222   0.2222222), wk =   0.0219479
        k(   70) = (   0.3333333  -0.3333333   0.2222222), wk =   0.0438957
        k(   71) = (   0.4444444  -0.3333333   0.2222222), wk =   0.0438957
        k(   72) = (   0.3333333   0.4444444   0.2222222), wk =   0.0438957
        k(   73) = (   0.4444444  -0.4444444   0.2222222), wk =   0.0438957
        k(   74) = (   0.4444444  -0.3333333   0.3333333), wk =   0.0219479
        k(   75) = (   0.4444444  -0.4444444   0.3333333), wk =   0.0438957

                       cryst. coord.
        k(    1) = (   0.0000000   0.0000000   0.0000000), wk =   0.0027435
        k(    2) = (   0.0000000   0.0000000   0.1111111), wk =   0.0109739
        k(    3) = (   0.0000000   0.0000000   0.2222222), wk =   0.0109739
        k(    4) = (   0.0000000   0.0000000   0.3333333), wk =   0.0109739
        k(    5) = (   0.0000000   0.0000000   0.4444444), wk =   0.0109739
        k(    6) = (   0.0000000   0.1111111   0.1111111), wk =   0.0109739
        k(    7) = (   0.0000000   0.1111111   0.2222222), wk =   0.0219479
        k(    8) = (   0.0000000   0.1111111   0.3333333), wk =   0.0219479
        k(    9) = (   0.0000000   0.1111111   0.4444444), wk =   0.0219479
        k(   10) = (   0.0000000   0.2222222   0.2222222), wk =   0.0109739
        k(   11) = (   0.0000000   0.2222222   0.3333333), wk =   0.0219479
        k(   12) = (   0.0000000   0.2222222   0.4444444), wk =   0.0219479
        k(   13) = (   0.0000000   0.3333333   0.3333333), wk =   0.0109739
        k(   14) = (   0.0000000   0.3333333   0.4444444), wk =   0.0219479
        k(   15) = (   0.0000000   0.4444444   0.4444444), wk =   0.0109739
        k(   16) = (   0.1111111   0.1111111   0.1111111), wk =   0.0219479
        k(   17) = (   0.1111111   0.1111111   0.2222222), wk =   0.0438957
        k(   18) = (   0.1111111   0.1111111   0.3333333), wk =   0.0438957
        k(   19) = (   0.1111111   0.1111111   0.4444444), wk =   0.0438957
        k(   20) = (   0.1111111   0.2222222   0.2222222), wk =   0.0219479
        k(   21) = (   0.1111111   0.2222222   0.3333333), wk =   0.0438957
        k(   22) = (   0.1111111   0.2222222   0.4444444), wk =   0.0438957
        k(   23) = (   0.1111111   0.3333333   0.3333333), wk =   0.0219479
        k(   24) = (   0.1111111   0.3333333   0.4444444), wk =   0.0438957
        k(   25) = (   0.1111111   0.4444444   0.4444444), wk =   0.0219479
        k(   26) = (   0.2222222   0.2222222   0.2222222), wk =   0.0219479
        k(   27) = (   0.2222222   0.2222222   0.3333333), wk =   0.0438957
        k(   28) = (   0.2222222   0.2222222   0.4444444), wk =   0.0438957
        k(   29) = (   0.2222222   0.3333333   0.3333333), wk =   0.0219479
        k(   30) = (   0.2222222   0.3333333   0.4444444), wk =   0.0438957
        k(   31) = (   0.2222222   0.4444444   0.4444444), wk =   0.0219479
        k(   32) = (   0.3333333   0.3333333   0.3333333), wk =   0.0219479
        k(   33) = (   0.3333333   0.3333333   0.4444444), wk =   0.0438957
        k(   34) = (   0.3333333   0.4444444   0.4444444), wk =   0.0219479
        k(   35) = (   0.4444444   0.4444444   0.4444444), wk =   0.0219479
        k(   36) = (   0.1111111   0.0000000   0.0000000), wk =   0.0054870
        k(   37) = (   0.2222222   0.0000000   0.0000000), wk =   0.0054870
        k(   38) = (   0.3333333   0.0000000   0.0000000), wk =   0.0054870
        k(   39) = (   0.4444444   0.0000000   0.0000000), wk =   0.0054870
        k(   40) = (   0.1111111  -0.1111111   0.0000000), wk =   0.0219479
        k(   41) = (   0.2222222  -0.1111111   0.0000000), wk =   0.0219479
        k(   42) = (   0.1111111   0.2222222   0.0000000), wk =   0.0219479
        k(   43) = (   0.3333333  -0.1111111   0.0000000), wk =   0.0219479
        k(   44) = (   0.1111111   0.3333333   0.0000000), wk =   0.0219479
        k(   45) = (   0.4444444  -0.1111111   0.0000000), wk =   0.0219479
        k(   46) = (   0.1111111   0.4444444   0.0000000), wk =   0.0219479
        k(   47) = (   0.2222222  -0.2222222   0.0000000), wk =   0.0219479
        k(   48) = (   0.3333333  -0.2222222   0.0000000), wk =   0.0219479
        k(   49) = (   0.2222222   0.3333333   0.0000000), wk =   0.0219479
        k(   50) = (   0.4444444  -0.2222222   0.0000000), wk =   0.0219479
        k(   51) = (   0.2222222   0.4444444   0.0000000), wk =   0.0219479
        k(   52) = (   0.3333333  -0.3333333   0.0000000), wk =   0.0219479
        k(   53) = (   0.4444444  -0.3333333   0.0000000), wk =   0.0219479
        k(   54) = (   0.3333333   0.4444444   0.0000000), wk =   0.0219479
        k(   55) = (   0.4444444  -0.4444444   0.0000000), wk =   0.0219479
        k(   56) = (   0.2222222  -0.1111111   0.1111111), wk =   0.0219479
        k(   57) = (   0.3333333  -0.1111111   0.1111111), wk =   0.0219479
        k(   58) = (   0.4444444  -0.1111111   0.1111111), wk =   0.0219479
        k(   59) = (   0.2222222  -0.2222222   0.1111111), wk =   0.0438957
        k(   60) = (   0.3333333  -0.2222222   0.1111111), wk =   0.0438957
        k(   61) = (   0.2222222   0.3333333   0.1111111), wk =   0.0438957
        k(   62) = (   0.4444444  -0.2222222   0.1111111), wk =   0.0438957
        k(   63) = (   0.2222222   0.4444444   0.1111111), wk =   0.0438957
        k(   64) = (   0.3333333  -0.3333333   0.1111111), wk =   0.0438957
        k(   65) = (   0.4444444  -0.3333333   0.1111111), wk =   0.0438957
        k(   66) = (   0.3333333   0.4444444   0.1111111), wk =   0.0438957
        k(   67) = (   0.4444444  -0.4444444   0.1111111), wk =   0.0438957
        k(   68) = (   0.3333333  -0.2222222   0.2222222), wk =   0.0219479
        k(   69) = (   0.4444444  -0.2222222   0.2222222), wk =   0.0219479
        k(   70) = (   0.3333333  -0.3333333   0.2222222), wk =   0.0438957
        k(   71) = (   0.4444444  -0.3333333   0.2222222), wk =   0.0438957
        k(   72) = (   0.3333333   0.4444444   0.2222222), wk =   0.0438957
        k(   73) = (   0.4444444  -0.4444444   0.2222222), wk =   0.0438957
        k(   74) = (   0.4444444  -0.3333333   0.3333333), wk =   0.0219479
        k(   75) = (   0.4444444  -0.4444444   0.3333333), wk =   0.0438957

     Dense  grid:   113801 G-vectors     FFT dimensions: (  64,  64,  64)

     Smooth grid:    40339 G-vectors     FFT dimensions: (  45,  45,  45)

     Dynamical RAM for                 wfc:       0.05 MB

     Dynamical RAM for     wfc (w. buffer):       3.64 MB

     Dynamical RAM for           str. fact:       0.11 MB

     Dynamical RAM for           local pot:       0.00 MB

     Dynamical RAM for          nlocal pot:       0.08 MB

     Dynamical RAM for                qrad:       0.92 MB

     Dynamical RAM for          rho,v,vnew:       0.70 MB

     Dynamical RAM for               rhoin:       0.23 MB

     Dynamical RAM for            rho*nmix:       1.74 MB

     Dynamical RAM for           G-vectors:       0.43 MB

     Dynamical RAM for          h,s,v(r/c):       0.02 MB

     Dynamical RAM for          <psi|beta>:       0.00 MB

     Dynamical RAM for                 psi:       0.10 MB

     Dynamical RAM for                hpsi:       0.10 MB

     Dynamical RAM for                spsi:       0.10 MB

     Dynamical RAM for      wfcinit/wfcrot:       0.10 MB

     Dynamical RAM for           addusdens:       4.88 MB

     Dynamical RAM for          addusforce:       5.16 MB

     Dynamical RAM for         addusstress:       5.43 MB

     Estimated static dynamical RAM per process >       6.95 MB

     Estimated max dynamical RAM per process >      14.11 MB

     Estimated total dynamical RAM >     225.76 MB

     Check: negative core charge=   -0.000002

     Initial potential from superposition of free atoms

     starting charge      12.0000, renormalised to      12.0000
     Starting wfcs are    8 randomized atomic wfcs +    2 random wfcs
     Checking if some PAW data can be deallocated... 

     total cpu time spent up to now is        1.0 secs

     Self-consistent Calculation

     iteration #  1     ecut=    50.00 Ry     beta= 0.40
     Davidson diagonalization with overlap

---- Real-time Memory Report at c_bands before calling an iterative solver
            53 MiB given to the printing process from OS
             0 MiB allocation reported by mallinfo(arena+hblkhd)
        226174 MiB available memory on the node where the printing process lives
------------------
     ethr =  1.00E-02,  avg # of iterations =  7.1

     Threshold (ethr) on eigenvalues was too large:
     Diagonalizing with lowered threshold

     Davidson diagonalization with overlap

---- Real-time Memory Report at c_bands before calling an iterative solver
            59 MiB given to the printing process from OS
             0 MiB allocation reported by mallinfo(arena+hblkhd)
        226115 MiB available memory on the node where the printing process lives
------------------
     ethr =  2.65E-04,  avg # of iterations =  2.8

     total cpu time spent up to now is        3.0 secs

     total energy              =     -82.50541326 Ry
     estimated scf accuracy    <       0.03163952 Ry

     iteration #  2     ecut=    50.00 Ry     beta= 0.40
     Davidson diagonalization with overlap

---- Real-time Memory Report at c_bands before calling an iterative solver
            59 MiB given to the printing process from OS
             0 MiB allocation reported by mallinfo(arena+hblkhd)
        226127 MiB available memory on the node where the printing process lives
------------------
     ethr =  2.64E-04,  avg # of iterations =  1.0

     total cpu time spent up to now is        3.7 secs

     total energy              =     -82.48949113 Ry
     estimated scf accuracy    <       0.41073308 Ry

     iteration #  3     ecut=    50.00 Ry     beta= 0.40
     Davidson diagonalization with overlap

---- Real-time Memory Report at c_bands before calling an iterative solver
            59 MiB given to the printing process from OS
             0 MiB allocation reported by mallinfo(arena+hblkhd)
        226122 MiB available memory on the node where the printing process lives
------------------
     ethr =  2.64E-04,  avg # of iterations =  1.0

     total cpu time spent up to now is        4.4 secs

     total energy              =     -82.50128704 Ry
     estimated scf accuracy    <       0.13715917 Ry

     iteration #  4     ecut=    50.00 Ry     beta= 0.40
     Davidson diagonalization with overlap

---- Real-time Memory Report at c_bands before calling an iterative solver
            59 MiB given to the printing process from OS
             0 MiB allocation reported by mallinfo(arena+hblkhd)
        226120 MiB available memory on the node where the printing process lives
------------------
     ethr =  2.64E-04,  avg # of iterations =  1.0

     total cpu time spent up to now is        5.1 secs

     total energy              =     -82.50452590 Ry
     estimated scf accuracy    <       0.00123346 Ry

     iteration #  5     ecut=    50.00 Ry     beta= 0.40
     Davidson diagonalization with overlap

---- Real-time Memory Report at c_bands before calling an iterative solver
            59 MiB given to the printing process from OS
             0 MiB allocation reported by mallinfo(arena+hblkhd)
        226094 MiB available memory on the node where the printing process lives
------------------
     ethr =  1.03E-05,  avg # of iterations =  3.1

     total cpu time spent up to now is        6.0 secs

     total energy              =     -82.50457684 Ry
     estimated scf accuracy    <       0.00005791 Ry

     iteration #  6     ecut=    50.00 Ry     beta= 0.40
     Davidson diagonalization with overlap

---- Real-time Memory Report at c_bands before calling an iterative solver
            59 MiB given to the printing process from OS
             0 MiB allocation reported by mallinfo(arena+hblkhd)
        226049 MiB available memory on the node where the printing process lives
------------------
     ethr =  4.83E-07,  avg # of iterations =  2.5

     total cpu time spent up to now is        6.8 secs

     total energy              =     -82.50458206 Ry
     estimated scf accuracy    <       0.00007683 Ry

     iteration #  7     ecut=    50.00 Ry     beta= 0.40
     Davidson diagonalization with overlap

---- Real-time Memory Report at c_bands before calling an iterative solver
            59 MiB given to the printing process from OS
             0 MiB allocation reported by mallinfo(arena+hblkhd)
        226023 MiB available memory on the node where the printing process lives
------------------
     ethr =  4.83E-07,  avg # of iterations =  1.0

     total cpu time spent up to now is        7.5 secs

     total energy              =     -82.50458718 Ry
     estimated scf accuracy    <       0.00001204 Ry

     iteration #  8     ecut=    50.00 Ry     beta= 0.40
     Davidson diagonalization with overlap

---- Real-time Memory Report at c_bands before calling an iterative solver
            59 MiB given to the printing process from OS
             0 MiB allocation reported by mallinfo(arena+hblkhd)
        226011 MiB available memory on the node where the printing process lives
------------------
     ethr =  1.00E-07,  avg # of iterations =  1.0

     total cpu time spent up to now is        8.3 secs

     total energy              =     -82.50458841 Ry
     estimated scf accuracy    <       0.00000233 Ry

     iteration #  9     ecut=    50.00 Ry     beta= 0.40
     Davidson diagonalization with overlap

---- Real-time Memory Report at c_bands before calling an iterative solver
            59 MiB given to the printing process from OS
             0 MiB allocation reported by mallinfo(arena+hblkhd)
        226079 MiB available memory on the node where the printing process lives
------------------
     ethr =  1.94E-08,  avg # of iterations =  1.0

     total cpu time spent up to now is        9.0 secs

     total energy              =     -82.50458868 Ry
     estimated scf accuracy    <       0.00000002 Ry

     iteration # 10     ecut=    50.00 Ry     beta= 0.40
     Davidson diagonalization with overlap

---- Real-time Memory Report at c_bands before calling an iterative solver
            59 MiB given to the printing process from OS
             0 MiB allocation reported by mallinfo(arena+hblkhd)
        226078 MiB available memory on the node where the printing process lives
------------------
     ethr =  1.48E-10,  avg # of iterations =  2.0

     total cpu time spent up to now is        9.8 secs

     total energy              =     -82.50458868 Ry
     estimated scf accuracy    <       0.00000002 Ry

     iteration # 11     ecut=    50.00 Ry     beta= 0.40
     Davidson diagonalization with overlap

---- Real-time Memory Report at c_bands before calling an iterative solver
            59 MiB given to the printing process from OS
             0 MiB allocation reported by mallinfo(arena+hblkhd)
        226072 MiB available memory on the node where the printing process lives
------------------
     ethr =  1.48E-10,  avg # of iterations =  1.0

     total cpu time spent up to now is       10.6 secs

     total energy              =     -82.50458868 Ry
     estimated scf accuracy    <          3.2E-09 Ry

     iteration # 12     ecut=    50.00 Ry     beta= 0.40
     Davidson diagonalization with overlap

---- Real-time Memory Report at c_bands before calling an iterative solver
            59 MiB given to the printing process from OS
             0 MiB allocation reported by mallinfo(arena+hblkhd)
        226070 MiB available memory on the node where the printing process lives
------------------
     ethr =  2.65E-11,  avg # of iterations =  1.0

     total cpu time spent up to now is       11.3 secs

     End of self-consistent calculation

          k = 0.0000 0.0000 0.0000 (  5041 PWs)   bands (ev):

   -23.3754 -22.3781  -9.6576  -8.1403  -8.1403  -7.3735  -7.3735  -6.3801
     0.1536   4.8985

     occupation numbers 
     1.0000   1.0000   1.0000   1.0000   1.0000   0.0734   0.0734   0.0000
     0.0000   0.0000

          k = 0.0000 0.0000 0.1111 (  5041 PWs)   bands (ev):

   -23.3753 -22.3780  -9.6571  -8.1474  -8.1397  -7.3758  -7.3733  -6.3801
     0.2399   4.5187

     occupation numbers 
     1.0000   1.0000   1.0000   1.0000   1.0000   0.0772   0.0731   0.0000
     0.0000   0.0000

          k = 0.0000 0.0000 0.2222 (  5049 PWs)   bands (ev):

   -23.3749 -22.3778  -9.6559  -8.1653  -8.1381  -7.3815  -7.3728  -6.3800
     0.4940   3.7438

     occupation numbers 
     1.0000   1.0000   1.0000   1.0000   1.0000   0.0874   0.0723   0.0000
     0.0000   0.0000

          k = 0.0000 0.0000 0.3333 (  5025 PWs)   bands (ev):

   -23.3744 -22.3776  -9.6545  -8.1853  -8.1364  -7.3881  -7.3723  -6.3799
     0.9031   2.9163

     occupation numbers 
     1.0000   1.0000   1.0000   1.0000   1.0000   0.1002   0.0714   0.0000
     0.0000   0.0000

          k = 0.0000 0.0000 0.4444 (  5034 PWs)   bands (ev):

   -23.3741 -22.3775  -9.6536  -8.1983  -8.1352  -7.3923  -7.3719  -6.3798
     1.4422   2.1566

     occupation numbers 
     1.0000   1.0000   1.0000   1.0000   1.0000   0.1093   0.0709   0.0000
     0.0000   0.0000

          k = 0.0000 0.1111 0.1111 (  5037 PWs)   bands (ev):

   -23.3751 -22.3779  -9.6566  -8.1472  -8.1463  -7.3757  -7.3755  -6.3800
     0.3254   4.3748

     occupation numbers 
     1.0000   1.0000   1.0000   1.0000   1.0000   0.0769   0.0767   0.0000
     0.0000   0.0000

          k = 0.0000 0.1111 0.2222 (  5053 PWs)   bands (ev):

   -23.3747 -22.3777  -9.6554  -8.1645  -8.1450  -7.3813  -7.3751  -6.3800
     0.5774   3.7789

     occupation numbers 
     1.0000   1.0000   1.0000   1.0000   1.0000   0.0870   0.0760   0.0000
     0.0000   0.0000

          k = 0.0000 0.1111 0.3333 (  5053 PWs)   bands (ev):

   -23.3743 -22.3775  -9.6540  -8.1844  -8.1431  -7.3878  -7.3745  -6.3799
     0.9828   2.9835

     occupation numbers 
     1.0000   1.0000   1.0000   1.0000   1.0000   0.0997   0.0750   0.0000
     0.0000   0.0000

          k = 0.0000 0.1111 0.4444 (  5024 PWs)   bands (ev):

   -23.3740 -22.3774  -9.6531  -8.1973  -8.1418  -7.3921  -7.3741  -6.3798
     1.5146   2.2349

     occupation numbers 
     1.0000   1.0000   1.0000   1.0000   1.0000   0.1088   0.0744   0.0000
     0.0000   0.0000

          k = 0.0000 0.2222 0.2222 (  5017 PWs)   bands (ev):

   -23.3743 -22.3775  -9.6542  -8.1636  -8.1613  -7.3809  -7.3806  -6.3799
     0.8228   3.7393

     occupation numbers 
     1.0000   1.0000   1.0000   1.0000   1.0000   0.0863   0.0857   0.0000
     0.0000   0.0000

          k = 0.0000 0.2222 0.3333 (  5037 PWs)   bands (ev):

   -23.3739 -22.3773  -9.6528  -8.1820  -8.1601  -7.3872  -7.3802  -6.3798
     1.2167   3.1695

     occupation numbers 
     1.0000   1.0000   1.0000   1.0000   1.0000   0.0985   0.0848   0.0000
     0.0000   0.0000

          k = 0.0000 0.2222 0.4444 (  5040 PWs)   bands (ev):

   -23.3736 -22.3772  -9.6520  -8.1946  -8.1586  -7.3914  -7.3797  -6.3797
     1.7261   2.4640

     occupation numbers 
     1.0000   1.0000   1.0000   1.0000   1.0000   0.1074   0.0841   0.0000
     0.0000   0.0000

          k = 0.0000 0.3333 0.3333 (  5027 PWs)   bands (ev):

   -23.3734 -22.3771  -9.6515  -8.1801  -8.1784  -7.3867  -7.3864  -6.3797
     1.5904   3.3079

     occupation numbers 
     1.0000   1.0000   1.0000   1.0000   1.0000   0.0973   0.0968   0.0000
     0.0000   0.0000

          k = 0.0000 0.3333 0.4444 (  5033 PWs)   bands (ev):

   -23.3732 -22.3770  -9.6506  -8.1916  -8.1774  -7.3907  -7.3861  -6.3796
     2.0635   2.8105

     occupation numbers 
     1.0000   1.0000   1.0000   1.0000   1.0000   0.1058   0.0962   0.0000
     0.0000   0.0000

          k = 0.0000 0.4444 0.4444 (  5067 PWs)   bands (ev):

   -23.3729 -22.3769  -9.6498  -8.1898  -8.1895  -7.3902  -7.3902  -6.3795
     2.4964   3.0949

     occupation numbers 
     1.0000   1.0000   1.0000   1.0000   1.0000   0.1048   0.1047   0.0000
     0.0000   0.0000

          k = 0.1111 0.1111 0.1111 (  5026 PWs)   bands (ev):

   -23.3579 -22.4008  -9.5813  -8.1309  -8.1299  -7.3949  -7.3947  -6.4748
     0.4039   4.4429

     occupation numbers 
     1.0000   1.0000   1.0000   1.0000   1.0000   0.1150   0.1147   0.0000
     0.0000   0.0000

          k = 0.1111 0.1111 0.2222 (  5046 PWs)   bands (ev):

   -23.3576 -22.4006  -9.5801  -8.1477  -8.1287  -7.4009  -7.3942  -6.4746
     0.6544   3.8465

     occupation numbers 
     1.0000   1.0000   1.0000   1.0000   1.0000   0.1297   0.1136   0.0000
     0.0000   0.0000

          k = 0.1111 0.1111 0.3333 (  5043 PWs)   bands (ev):

   -23.3571 -22.4004  -9.5788  -8.1672  -8.1268  -7.4079  -7.3936  -6.4743
     1.0575   3.0534

     occupation numbers 
     1.0000   1.0000   1.0000   1.0000   1.0000   0.1481   0.1122   0.0000
     0.0000   0.0000

          k = 0.1111 0.1111 0.4444 (  5034 PWs)   bands (ev):

   -23.3568 -22.4002  -9.5779  -8.1798  -8.1256  -7.4124  -7.3932  -6.4741
     1.5854   2.3089

     occupation numbers 
     1.0000   1.0000   1.0000   1.0000   1.0000   0.1610   0.1113   0.0000
     0.0000   0.0000

          k = 0.1111 0.2222 0.2222 (  5035 PWs)   bands (ev):

   -23.3572 -22.4004  -9.5790  -8.1468  -8.1446  -7.4005  -7.4001  -6.4743
     0.8984   3.8037

     occupation numbers 
     1.0000   1.0000   1.0000   1.0000   1.0000   0.1286   0.1277   0.0000
     0.0000   0.0000

          k = 0.1111 0.2222 0.3333 (  5049 PWs)   bands (ev):

   -23.3568 -22.4002  -9.5776  -8.1649  -8.1434  -7.4072  -7.3996  -6.4740
     1.2901   3.2372

     occupation numbers 
     1.0000   1.0000   1.0000   1.0000   1.0000   0.1462   0.1265   0.0000
     0.0000   0.0000

          k = 0.1111 0.2222 0.4444 (  5040 PWs)   bands (ev):

   -23.3565 -22.4000  -9.5768  -8.1773  -8.1420  -7.4117  -7.3992  -6.4738
     1.7959   2.5363

     occupation numbers 
     1.0000   1.0000   1.0000   1.0000   1.0000   0.1590   0.1254   0.0000
     0.0000   0.0000

          k = 0.1111 0.3333 0.3333 (  5041 PWs)   bands (ev):

   -23.3563 -22.3999  -9.5763  -8.1630  -8.1614  -7.4066  -7.4063  -6.4737
     1.6619   3.3700

     occupation numbers 
     1.0000   1.0000   1.0000   1.0000   1.0000   0.1446   0.1438   0.0000
     0.0000   0.0000

          k = 0.1111 0.3333 0.4444 (  5026 PWs)   bands (ev):

   -23.3560 -22.3998  -9.5755  -8.1743  -8.1604  -7.4109  -7.4060  -6.4736
     2.1324   2.8790

     occupation numbers 
     1.0000   1.0000   1.0000   1.0000   1.0000   0.1566   0.1428   0.0000
     0.0000   0.0000

          k = 0.1111 0.4444 0.4444 (  5055 PWs)   bands (ev):

   -23.3558 -22.3997  -9.5746  -8.1726  -8.1723  -7.4104  -7.4104  -6.4734
     2.5652   3.1559

     occupation numbers 
     1.0000   1.0000   1.0000   1.0000   1.0000   0.1552   0.1550   0.0000
     0.0000   0.0000

          k = 0.2222 0.2222 0.2222 (  5037 PWs)   bands (ev):

   -23.3098 -22.4621  -9.3667  -8.1000  -8.0980  -7.4545  -7.4540  -6.7343
     1.1228   3.9968

     occupation numbers 
     1.0000   1.0000   1.0000   1.0000   1.0000   0.3184   0.3158   0.0000
     0.0000   0.0000

          k = 0.2222 0.2222 0.3333 (  5024 PWs)   bands (ev):

   -23.3094 -22.4619  -9.3655  -8.1170  -8.0968  -7.4625  -7.4534  -6.7336
     1.5083   3.4392

     occupation numbers 
     1.0000   1.0000   1.0000   1.0000   1.0000   0.3552   0.3133   0.0000
     0.0000   0.0000

          k = 0.2222 0.2222 0.4444 (  5049 PWs)   bands (ev):

   -23.3091 -22.4617  -9.3646  -8.1286  -8.0955  -7.4678  -7.4529  -6.7331
     2.0036   2.7517

     occupation numbers 
     1.0000   1.0000   1.0000   1.0000   1.0000   0.3810   0.3108   0.0000
     0.0000   0.0000

          k = 0.2222 0.3333 0.3333 (  5027 PWs)   bands (ev):

   -23.3090 -22.4616  -9.3642  -8.1153  -8.1137  -7.4617  -7.4613  -6.7329
     1.8748   3.5564

     occupation numbers 
     1.0000   1.0000   1.0000   1.0000   1.0000   0.3516   0.3496   0.0000
     0.0000   0.0000

          k = 0.2222 0.3333 0.4444 (  5035 PWs)   bands (ev):

   -23.3087 -22.4614  -9.3634  -8.1259  -8.1129  -7.4668  -7.4609  -6.7324
     2.3379   3.0826

     occupation numbers 
     1.0000   1.0000   1.0000   1.0000   1.0000   0.3760   0.3476   0.0000
     0.0000   0.0000

          k = 0.2222 0.4444 0.4444 (  5029 PWs)   bands (ev):

   -23.3084 -22.4613  -9.3626  -8.1243  -8.1240  -7.4661  -7.4661  -6.7320
     2.7711   3.3386

     occupation numbers 
     1.0000   1.0000   1.0000   1.0000   1.0000   0.3729   0.3725   0.0000
     0.0000   0.0000

          k = 0.3333 0.3333 0.3333 (  5046 PWs)   bands (ev):

   -23.2456 -22.5412  -9.0622  -8.0488  -8.0476  -7.5365  -7.5358  -7.0870
     2.2257   3.8658

     occupation numbers 
     1.0000   1.0000   1.0000   1.0000   1.0000   0.7499   0.7464   0.0000
     0.0000   0.0000

          k = 0.3333 0.3333 0.4444 (  5007 PWs)   bands (ev):

   -23.2453 -22.5410  -9.0615  -8.0585  -8.0468  -7.5426  -7.5353  -7.0862
     2.6780   3.4168

     occupation numbers 
     1.0000   1.0000   1.0000   1.0000   1.0000   0.7814   0.7439   0.0000
     0.0000   0.0000

          k = 0.3333 0.4444 0.4444 (  5017 PWs)   bands (ev):

   -23.2450 -22.5408  -9.0608  -8.0571  -8.0569  -7.5418  -7.5417  -7.0855
     3.1116   3.6422

     occupation numbers 
     1.0000   1.0000   1.0000   1.0000   1.0000   0.7771   0.7766   0.0000
     0.0000   0.0000

          k = 0.4444 0.4444 0.4444 (  4998 PWs)   bands (ev):

   -23.1949 -22.6015  -8.7893  -7.9999  -7.9997  -7.6044  -7.6043  -7.3899
     3.5818   4.0602

     occupation numbers 
     1.0000   1.0000   1.0000   1.0000   1.0000   1.0190   1.0186   0.1040
     0.0000   0.0000

          k = 0.1111 0.0000 0.0000 (  5041 PWs)   bands (ev):

   -23.3582 -22.4009  -9.5823  -8.1241  -8.1241  -7.3925  -7.3925  -6.4750
     0.2331   4.8676

     occupation numbers 
     1.0000   1.0000   1.0000   1.0000   1.0000   0.1098   0.1098   0.0000
     0.0000   0.0000

          k = 0.2222 0.0000 0.0000 (  5049 PWs)   bands (ev):

   -23.3108 -22.4627  -9.3698  -8.0787  -8.0787  -7.4450  -7.4450  -6.7362
     0.4684   3.7918

     occupation numbers 
     1.0000   1.0000   1.0000   1.0000   1.0000   0.2770   0.2770   0.0000
     0.0000   0.0000

          k = 0.3333 0.0000 0.0000 (  5025 PWs)   bands (ev):

   -23.2473 -22.5425  -9.0671  -8.0158  -8.0158  -7.5159  -7.5159  -7.0927
     0.8528   2.8513

     occupation numbers 
     1.0000   1.0000   1.0000   1.0000   1.0000   0.6387   0.6387   0.0000
     0.0000   0.0000

          k = 0.4444 0.0000 0.0000 (  5034 PWs)   bands (ev):

   -23.1970 -22.6033  -8.7942  -7.9629  -7.9629  -7.5740  -7.5740  -7.3997
     1.3802   2.0471

     occupation numbers 
     1.0000   1.0000   1.0000   1.0001   1.0001   0.9233   0.9233   0.1266
     0.0000   0.0000

          k = 0.1111-0.1111 0.0000 (  5037 PWs)   bands (ev):

   -23.3581 -22.4009  -9.5818  -8.1310  -8.1235  -7.3950  -7.3923  -6.4749
     0.3188   4.5884

     occupation numbers 
     1.0000   1.0000   1.0000   1.0000   1.0000   0.1154   0.1094   0.0000
     0.0000   0.0000

          k = 0.2222-0.1111 0.0000 (  5053 PWs)   bands (ev):

   -23.3107 -22.4627  -9.3694  -8.0852  -8.0781  -7.4479  -7.4448  -6.7359
     0.5527   3.8604

     occupation numbers 
     1.0000   1.0000   1.0000   1.0000   1.0000   0.2893   0.2760   0.0000
     0.0000   0.0000

          k = 0.1111 0.2222 0.0000 (  5053 PWs)   bands (ev):

   -23.3577 -22.4007  -9.5806  -8.1485  -8.1220  -7.4012  -7.3918  -6.4747
     0.5715   3.8124

     occupation numbers 
     1.0000   1.0000   1.0000   1.0000   1.0000   0.1303   0.1082   0.0000
     0.0000   0.0000

          k = 0.3333-0.1111 0.0000 (  5053 PWs)   bands (ev):

   -23.2471 -22.5424  -9.0667  -8.0217  -8.0153  -7.5195  -7.5156  -7.0922
     0.9349   2.9239

     occupation numbers 
     1.0000   1.0000   1.0000   1.0000   1.0000   0.6587   0.6370   0.0000
     0.0000   0.0000

          k = 0.1111 0.3333 0.0000 (  5053 PWs)   bands (ev):

   -23.3573 -22.4004  -9.5792  -8.1681  -8.1202  -7.4082  -7.3912  -6.4744
     0.9784   2.9868

     occupation numbers 
     1.0000   1.0000   1.0000   1.0000   1.0000   0.1488   0.1069   0.0000
     0.0000   0.0000

          k = 0.4444-0.1111 0.0000 (  5024 PWs)   bands (ev):

   -23.1968 -22.6032  -8.7939  -7.9681  -7.9625  -7.5784  -7.5736  -7.3990
     1.4595   2.1233

     occupation numbers 
     1.0000   1.0000   1.0000   1.0001   1.0001   0.9397   0.9218   0.1248
     0.0000   0.0000

          k = 0.1111 0.4444 0.0000 (  5024 PWs)   bands (ev):

   -23.3570 -22.4003  -9.5784  -8.1808  -8.1191  -7.4127  -7.3908  -6.4742
     1.5135   2.2309

     occupation numbers 
     1.0000   1.0000   1.0000   1.0000   1.0000   0.1618   0.1061   0.0000
     0.0000   0.0000

          k = 0.2222-0.2222 0.0000 (  5017 PWs)   bands (ev):

   -23.3103 -22.4624  -9.3683  -8.1016  -8.0767  -7.4553  -7.4441  -6.7352
     0.8012   4.0623

     occupation numbers 
     1.0000   1.0000   1.0000   1.0000   1.0000   0.3218   0.2733   0.0000
     0.0000   0.0000

          k = 0.3333-0.2222 0.0000 (  5037 PWs)   bands (ev):

   -23.2468 -22.5422  -9.0657  -8.0364  -8.0140  -7.5286  -7.5148  -7.0910
     1.1771   3.1382

     occupation numbers 
     1.0000   1.0000   1.0000   1.0000   1.0000   0.7083   0.6327   0.0000
     0.0000   0.0000

          k = 0.2222 0.3333 0.0000 (  5037 PWs)   bands (ev):

   -23.3099 -22.4622  -9.3670  -8.1200  -8.0750  -7.4636  -7.4434  -6.7344
     1.2015   3.1970

     occupation numbers 
     1.0000   1.0000   1.0000   1.0000   1.0000   0.3607   0.2704   0.0000
     0.0000   0.0000

          k = 0.4444-0.2222 0.0000 (  5040 PWs)   bands (ev):

   -23.1965 -22.6030  -8.7932  -7.9813  -7.9613  -7.5892  -7.5727  -7.3973
     1.6936   2.3487

     occupation numbers 
     1.0000   1.0000   1.0000   1.0000   1.0001   0.9768   0.9182   0.1208
     0.0000   0.0000

          k = 0.2222 0.4444 0.0000 (  5040 PWs)   bands (ev):

   -23.3096 -22.4620  -9.3661  -8.1319  -8.0740  -7.4691  -7.4430  -6.7339
     1.7251   2.4523

     occupation numbers 
     1.0000   1.0000   1.0000   1.0000   1.0000   0.3872   0.2685   0.0000
     0.0000   0.0000

          k = 0.3333-0.3333 0.0000 (  5027 PWs)   bands (ev):

   -23.2464 -22.5419  -9.0645  -8.0530  -8.0126  -7.5389  -7.5139  -7.0897
     1.5673   3.4812

     occupation numbers 
     1.0000   1.0000   1.0000   1.0000   1.0000   0.7626   0.6277   0.0000
     0.0000   0.0000

          k = 0.4444-0.3333 0.0000 (  5033 PWs)   bands (ev):

   -23.1961 -22.6026  -8.7923  -7.9961  -7.9600  -7.6014  -7.5716  -7.3956
     2.0701   2.7112

     occupation numbers 
     1.0000   1.0000   1.0000   1.0000   1.0001   1.0114   0.9140   0.1167
     0.0000   0.0000

          k = 0.3333 0.4444 0.0000 (  5033 PWs)   bands (ev):

   -23.2462 -22.5417  -9.0638  -8.0638  -8.0116  -7.5456  -7.5133  -7.0888
     2.0724   2.8174

     occupation numbers 
     1.0000   1.0000   1.0000   1.0000   1.0000   0.7965   0.6245   0.0000
     0.0000   0.0000

          k = 0.4444-0.4444 0.0000 (  5067 PWs)   bands (ev):

   -23.1959 -22.6024  -8.7917  -8.0057  -7.9592  -7.6092  -7.5710  -7.3945
     2.5498   3.1649

     occupation numbers 
     1.0000   1.0000   1.0000   1.0000   1.0001   1.0298   0.9112   0.1142
     0.0000   0.0000

          k = 0.2222-0.1111 0.1111 (  5046 PWs)   bands (ev):

   -23.3105 -22.4626  -9.3689  -8.0850  -8.0841  -7.4478  -7.4476  -6.7357
     0.6363   3.9286

     occupation numbers 
     1.0000   1.0000   1.0000   1.0000   1.0000   0.2887   0.2877   0.0000
     0.0000   0.0000

          k = 0.3333-0.1111 0.1111 (  5043 PWs)   bands (ev):

   -23.2470 -22.5423  -9.0663  -8.0215  -8.0208  -7.5194  -7.5190  -7.0917
     1.0163   2.9961

     occupation numbers 
     1.0000   1.0000   1.0000   1.0000   1.0000   0.6579   0.6558   0.0000
     0.0000   0.0000

          k = 0.4444-0.1111 0.1111 (  5034 PWs)   bands (ev):

   -23.1967 -22.6031  -8.7936  -7.9679  -7.9674  -7.5783  -7.5777  -7.3983
     1.5382   2.1991

     occupation numbers 
     1.0000   1.0000   1.0000   1.0001   1.0001   0.9394   0.9371   0.1232
     0.0000   0.0000

          k = 0.2222-0.2222 0.1111 (  5035 PWs)   bands (ev):

   -23.3102 -22.4623  -9.3678  -8.1009  -8.0830  -7.4550  -7.4470  -6.7350
     0.8827   4.0484

     occupation numbers 
     1.0000   1.0000   1.0000   1.0000   1.0000   0.3205   0.2854   0.0000
     0.0000   0.0000

          k = 0.3333-0.2222 0.1111 (  5049 PWs)   bands (ev):

   -23.2467 -22.5421  -9.0653  -8.0358  -8.0197  -7.5283  -7.5183  -7.0905
     1.2565   3.2090

     occupation numbers 
     1.0000   1.0000   1.0000   1.0000   1.0000   0.7063   0.6522   0.0000
     0.0000   0.0000

          k = 0.2222 0.3333 0.1111 (  5049 PWs)   bands (ev):

   -23.3098 -22.4621  -9.3665  -8.1191  -8.0812  -7.4633  -7.4463  -6.7342
     1.2794   3.2620

     occupation numbers 
     1.0000   1.0000   1.0000   1.0000   1.0000   0.3592   0.2822   0.0000
     0.0000   0.0000

          k = 0.4444-0.2222 0.1111 (  5040 PWs)   bands (ev):

   -23.1964 -22.6028  -8.7929  -7.9807  -7.9664  -7.5888  -7.5769  -7.3966
     1.7704   2.4228

     occupation numbers 
     1.0000   1.0000   1.0000   1.0000   1.0001   0.9754   0.9344   0.1192
     0.0000   0.0000

          k = 0.2222 0.4444 0.1111 (  5040 PWs)   bands (ev):

   -23.3095 -22.4619  -9.3657  -8.1310  -8.0801  -7.4687  -7.4458  -6.7337
     1.7958   2.5291

     occupation numbers 
     1.0000   1.0000   1.0000   1.0000   1.0000   0.3854   0.2801   0.0000
     0.0000   0.0000

          k = 0.3333-0.3333 0.1111 (  5041 PWs)   bands (ev):

   -23.2463 -22.5418  -9.0642  -8.0523  -8.0182  -7.5385  -7.5174  -7.0892
     1.6432   3.5502

     occupation numbers 
     1.0000   1.0000   1.0000   1.0000   1.0000   0.7604   0.6470   0.0000
     0.0000   0.0000

          k = 0.4444-0.3333 0.1111 (  5026 PWs)   bands (ev):

   -23.1960 -22.6025  -8.7920  -7.9954  -7.9650  -7.6008  -7.5758  -7.3949
     2.1437   2.7826

     occupation numbers 
     1.0000   1.0000   1.0000   1.0000   1.0001   1.0101   0.9301   0.1152
     0.0000   0.0000

          k = 0.3333 0.4444 0.1111 (  5026 PWs)   bands (ev):

   -23.2460 -22.5416  -9.0634  -8.0630  -8.0171  -7.5451  -7.5168  -7.0884
     2.1416   2.8917

     occupation numbers 
     1.0000   1.0000   1.0000   1.0000   1.0000   0.7941   0.6436   0.0000
     0.0000   0.0000

          k = 0.4444-0.4444 0.1111 (  5055 PWs)   bands (ev):

   -23.1958 -22.6023  -8.7914  -8.0050  -7.9641  -7.6086  -7.5751  -7.3939
     2.6177   3.2320

     occupation numbers 
     1.0000   1.0000   1.0000   1.0000   1.0001   1.0286   0.9273   0.1128
     0.0000   0.0000

          k = 0.3333-0.2222 0.2222 (  5024 PWs)   bands (ev):

   -23.2463 -22.5418  -9.0643  -8.0350  -8.0333  -7.5277  -7.5268  -7.0894
     1.4907   3.4181

     occupation numbers 
     1.0000   1.0000   1.0000   1.0000   1.0000   0.7034   0.6987   0.0000
     0.0000   0.0000

          k = 0.4444-0.2222 0.2222 (  5049 PWs)   bands (ev):

   -23.1961 -22.6026  -8.7921  -7.9799  -7.9786  -7.5883  -7.5869  -7.3951
     1.9969   2.6418

     occupation numbers 
     1.0000   1.0000   1.0000   1.0000   1.0000   0.9738   0.9693   0.1155
     0.0000   0.0000

          k = 0.3333-0.3333 0.2222 (  5027 PWs)   bands (ev):

   -23.2459 -22.5415  -9.0632  -8.0504  -8.0323  -7.5374  -7.5262  -7.0882
     1.8669   3.7524

     occupation numbers 
     1.0000   1.0000   1.0000   1.0000   1.0000   0.7547   0.6951   0.0000
     0.0000   0.0000

          k = 0.4444-0.3333 0.2222 (  5035 PWs)   bands (ev):

   -23.1957 -22.6023  -8.7913  -7.9938  -7.9776  -7.5995  -7.5862  -7.3934
     2.3607   2.9937

     occupation numbers 
     1.0000   1.0000   1.0000   1.0000   1.0000   1.0066   0.9671   0.1117
     0.0000   0.0000

          k = 0.3333 0.4444 0.2222 (  5035 PWs)   bands (ev):

   -23.2457 -22.5413  -9.0625  -8.0609  -8.0311  -7.5440  -7.5255  -7.0874
     2.3462   3.1054

     occupation numbers 
     1.0000   1.0000   1.0000   1.0000   1.0000   0.7882   0.6913   0.0000
     0.0000   0.0000

          k = 0.4444-0.4444 0.2222 (  5029 PWs)   bands (ev):

   -23.1955 -22.6020  -8.7907  -8.0032  -7.9766  -7.6071  -7.5854  -7.3924
     2.8193   3.4314

     occupation numbers 
     1.0000   1.0000   1.0000   1.0000   1.0000   1.0253   0.9643   0.1095
     0.0000   0.0000

          k = 0.4444-0.3333 0.3333 (  5007 PWs)   bands (ev):

   -23.1953 -22.6019  -8.7904  -7.9924  -7.9914  -7.5985  -7.5974  -7.3918
     2.7098   3.3334

     occupation numbers 
     1.0000   1.0000   1.0000   1.0000   1.0000   1.0038   1.0009   0.1082
     0.0000   0.0000

          k = 0.4444-0.4444 0.3333 (  5017 PWs)   bands (ev):

   -23.1951 -22.6017  -8.7899  -8.0012  -7.9907  -7.6055  -7.5969  -7.3908
     3.1487   3.7564

     occupation numbers 
     1.0000   1.0000   1.0000   1.0000   1.0000   1.0214   0.9996   0.1060
     0.0000   0.0000

     the Fermi energy is    -7.4717 ev

!    total energy              =     -82.50458868 Ry
     total all-electron energy =      -300.198373 Ry
     estimated scf accuracy    <          1.3E-10 Ry
     smearing contrib. (-TS)   =      -0.00362606 Ry
     internal energy E=F+TS    =     -82.50096262 Ry

     The total energy is F=E-TS. E is the sum of the following terms:
     one-electron contribution =     -61.04003418 Ry
     hartree contribution      =      33.46626093 Ry
     xc contribution           =     -13.75676157 Ry
     ewald contribution        =     -22.03793894 Ry
     one-center paw contrib.   =     -19.13248886 Ry
      -> PAW hartree energy AE =      21.15765090 Ry
      -> PAW hartree energy PS =     -21.07231586 Ry
      -> PAW xc energy AE      =     -15.90080755 Ry
      -> PAW xc energy PS      =       6.24922818 Ry
      -> total E_H with PAW    =      33.55159597 Ry
      -> total E_XC with PAW   =     -23.40834094 Ry

     convergence has been achieved in  12 iterations

     Forces acting on atoms (cartesian axes, Ry/au):

     atom    1 type  1   force =     0.12960435    0.00000000    0.00000000
     atom    2 type  1   force =    -0.12960435    0.00000000    0.00000000
     The non-local contrib.  to forces
     atom    1 type  1   force =     0.47520173    0.00000000    0.00000000
     atom    2 type  1   force =    -0.47519926    0.00000000    0.00000000
     The ionic contribution  to forces
     atom    1 type  1   force =    -1.37285271   -0.00000000   -0.00000000
     atom    2 type  1   force =     1.37285271    0.00000000   -0.00000000
     The local contribution  to forces
     atom    1 type  1   force =     1.03372557    0.00000000    0.00000000
     atom    2 type  1   force =    -1.03373022    0.00000000    0.00000000
     The core correction contribution to forces
     atom    1 type  1   force =    -0.00646852    0.00000000    0.00000000
     atom    2 type  1   force =     0.00647579    0.00000000    0.00000000
     The Hubbard contrib.    to forces
     atom    1 type  1   force =     0.00000000    0.00000000    0.00000000
     atom    2 type  1   force =     0.00000000    0.00000000    0.00000000
     The SCF correction term to forces
     atom    1 type  1   force =     0.00000266    0.00000000    0.00000000
     atom    2 type  1   force =     0.00000101    0.00000000    0.00000000

     Total force =     0.183288     Total SCF correction =     0.000003


     Computing stress (Cartesian axis) and pressure

          total   stress  (Ry/bohr**3)                   (kbar)     P=      -42.87
  -0.00086990   0.00000000   0.00000000         -127.97        0.00        0.00
   0.00000000  -0.00000224   0.00000000            0.00       -0.33        0.00
   0.00000000   0.00000000  -0.00000224            0.00        0.00       -0.33

     kinetic stress (kbar)   3290.23      0.00      0.00
                                0.00   3846.58      0.00
                                0.00      0.00   3846.58

     local   stress (kbar)  -8991.16      0.00      0.00
                                0.00  -2252.20      0.00
                                0.00      0.00  -2252.20

     nonloc. stress (kbar)    870.19      0.00      0.00
                                0.00    885.09      0.00
                                0.00      0.00    885.09

     hartree stress (kbar)   3984.96      0.00     -0.00
                                0.00    925.61     -0.00
                               -0.00     -0.00    925.61

     exc-cor stress (kbar)   -601.55      0.00      0.00
                                0.00   -602.89      0.00
                                0.00      0.00   -602.89

     corecor stress (kbar)   -145.61      0.00      0.00
                                0.00   -148.42      0.00
                                0.00      0.00   -148.42

     ewald   stress (kbar)   1464.99      0.00     -0.00
                                0.00  -2654.09     -0.00
                               -0.00     -0.00  -2654.09

     hubbard stress (kbar)      0.00      0.00      0.00
                                0.00      0.00      0.00
                                0.00      0.00      0.00

     DFT-D   stress (kbar)      0.00      0.00      0.00
                                0.00      0.00      0.00
                                0.00      0.00      0.00

     XDM     stress (kbar)      0.00      0.00      0.00
                                0.00      0.00      0.00
                                0.00      0.00      0.00

     dft-nl  stress (kbar)      0.00      0.00      0.00
                                0.00      0.00      0.00
                                0.00      0.00      0.00

     TS-vdW  stress (kbar)      0.00      0.00      0.00
                                0.00      0.00      0.00
                                0.00      0.00      0.00

     MDB     stress (kbar)      0.00      0.00      0.00
                                0.00      0.00      0.00
                                0.00      0.00      0.00

     3D-RISM stress (kbar)      0.00      0.00      0.00
                                0.00      0.00      0.00
                                0.00      0.00      0.00


     BFGS Geometry Optimization
     Energy error            =      0.0E+00 Ry
     Gradient error          =      1.3E-01 Ry/Bohr
     Cell gradient error     =      1.3E+02 kbar

     number of scf cycles    =   1
     number of bfgs steps    =   0

     enthalpy           new  =     -82.5045886797 Ry

     new trust radius        =       0.1296043500 bohr
     new conv_thr            =       0.0000000004 Ry

     new unit-cell volume =    825.10468 a.u.^3 (   122.26790 Ang^3 )
     density =      0.43458 g/cm^3

CELL_PARAMETERS (angstrom)
   4.891262958   0.000000000   0.000000000
   0.000000000   4.999720399   0.000000000
   0.000000000   0.000000000   4.999720399

ATOMIC_POSITIONS (angstrom)
O             0.0670921514        0.0000000000        0.0000000000
O             2.1398456954        0.0000000000        0.0000000000



     Writing config-only to output data dir ./out/aiida.save/
     NEW-OLD atomic charge density approx. for the potential

     Check: negative core charge=   -0.000001

     negative rho (up, down):  2.500E-08 0.000E+00
     extrapolated charge   11.73186, renormalised to   12.00000

     total cpu time spent up to now is       12.8 secs

     Self-consistent Calculation

     iteration #  1     ecut=    50.00 Ry     beta= 0.40
     Davidson diagonalization with overlap

---- Real-time Memory Report at c_bands before calling an iterative solver
           119 MiB given to the printing process from OS
             0 MiB allocation reported by mallinfo(arena+hblkhd)
        225974 MiB available memory on the node where the printing process lives
------------------
     c_bands:  1 eigenvalues not converged
     c_bands:  1 eigenvalues not converged
     ethr =  1.00E-06,  avg # of iterations =  7.5

     negative rho (up, down):  4.999E-08 0.000E+00

     total cpu time spent up to now is       15.1 secs

     total energy              =     -82.53811710 Ry
     estimated scf accuracy    <       0.02457056 Ry

     iteration #  2     ecut=    50.00 Ry     beta= 0.40
     Davidson diagonalization with overlap

---- Real-time Memory Report at c_bands before calling an iterative solver
           119 MiB given to the printing process from OS
             0 MiB allocation reported by mallinfo(arena+hblkhd)
        225963 MiB available memory on the node where the printing process lives
------------------
     ethr =  2.05E-04,  avg # of iterations =  2.5

     negative rho (up, down):  1.755E-08 0.000E+00

     total cpu time spent up to now is       16.3 secs

     total energy              =     -82.56472308 Ry
     estimated scf accuracy    <       0.01126825 Ry

     iteration #  3     ecut=    50.00 Ry     beta= 0.40
     Davidson diagonalization with overlap

---- Real-time Memory Report at c_bands before calling an iterative solver
           119 MiB given to the printing process from OS
             0 MiB allocation reported by mallinfo(arena+hblkhd)
        225968 MiB available memory on the node where the printing process lives
------------------
     ethr =  9.39E-05,  avg # of iterations =  1.0

     negative rho (up, down):  1.495E-08 0.000E+00

     total cpu time spent up to now is       17.0 secs

     total energy              =     -82.56407028 Ry
     estimated scf accuracy    <       0.00421454 Ry

     iteration #  4     ecut=    50.00 Ry     beta= 0.40
     Davidson diagonalization with overlap

---- Real-time Memory Report at c_bands before calling an iterative solver
           119 MiB given to the printing process from OS
             0 MiB allocation reported by mallinfo(arena+hblkhd)
        226060 MiB available memory on the node where the printing process lives
------------------
     ethr =  3.51E-05,  avg # of iterations =  1.2

     total cpu time spent up to now is       17.7 secs

     total energy              =     -82.56265897 Ry
     estimated scf accuracy    <       0.02306770 Ry

     iteration #  5     ecut=    50.00 Ry     beta= 0.40
     Davidson diagonalization with overlap

---- Real-time Memory Report at c_bands before calling an iterative solver
           119 MiB given to the printing process from OS
             0 MiB allocation reported by mallinfo(arena+hblkhd)
        226059 MiB available memory on the node where the printing process lives
------------------
     ethr =  3.51E-05,  avg # of iterations =  2.0

     total cpu time spent up to now is       18.6 secs

     total energy              =     -82.56382142 Ry
     estimated scf accuracy    <       0.00077986 Ry

     iteration #  6     ecut=    50.00 Ry     beta= 0.40
     Davidson diagonalization with overlap

---- Real-time Memory Report at c_bands before calling an iterative solver
           119 MiB given to the printing process from OS
             0 MiB allocation reported by mallinfo(arena+hblkhd)
        226057 MiB available memory on the node where the printing process lives
------------------
     ethr =  6.50E-06,  avg # of iterations =  1.1

     total cpu time spent up to now is       19.4 secs

     total energy              =     -82.56383995 Ry
     estimated scf accuracy    <       0.00007920 Ry

     iteration #  7     ecut=    50.00 Ry     beta= 0.40
     Davidson diagonalization with overlap

---- Real-time Memory Report at c_bands before calling an iterative solver
           119 MiB given to the printing process from OS
             0 MiB allocation reported by mallinfo(arena+hblkhd)
        226174 MiB available memory on the node where the printing process lives
------------------
     ethr =  6.60E-07,  avg # of iterations =  2.2

     total cpu time spent up to now is       20.4 secs

     total energy              =     -82.56386681 Ry
     estimated scf accuracy    <       0.00000263 Ry

     iteration #  8     ecut=    50.00 Ry     beta= 0.40
     Davidson diagonalization with overlap

---- Real-time Memory Report at c_bands before calling an iterative solver
           119 MiB given to the printing process from OS
             0 MiB allocation reported by mallinfo(arena+hblkhd)
        226169 MiB available memory on the node where the printing process lives
------------------
     ethr =  2.20E-08,  avg # of iterations =  2.0

     total cpu time spent up to now is       21.3 secs

     total energy              =     -82.56386839 Ry
     estimated scf accuracy    <       0.00000045 Ry

     iteration #  9     ecut=    50.00 Ry     beta= 0.40
     Davidson diagonalization with overlap

---- Real-time Memory Report at c_bands before calling an iterative solver
           119 MiB given to the printing process from OS
             0 MiB allocation reported by mallinfo(arena+hblkhd)
        226167 MiB available memory on the node where the printing process lives
------------------
     ethr =  3.72E-09,  avg # of iterations =  2.0

     total cpu time spent up to now is       22.3 secs

     total energy              =     -82.56386750 Ry
     estimated scf accuracy    <       0.00000230 Ry

     iteration # 10     ecut=    50.00 Ry     beta= 0.40
     Davidson diagonalization with overlap

---- Real-time Memory Report at c_bands before calling an iterative solver
           119 MiB given to the printing process from OS
             0 MiB allocation reported by mallinfo(arena+hblkhd)
        226166 MiB available memory on the node where the printing process lives
------------------
     ethr =  3.72E-09,  avg # of iterations =  2.0

     total cpu time spent up to now is       23.3 secs

     total energy              =     -82.56386763 Ry
     estimated scf accuracy    <       0.00000021 Ry

     iteration # 11     ecut=    50.00 Ry     beta= 0.40
     Davidson diagonalization with overlap

---- Real-time Memory Report at c_bands before calling an iterative solver
           119 MiB given to the printing process from OS
             0 MiB allocation reported by mallinfo(arena+hblkhd)
        226164 MiB available memory on the node where the printing process lives
------------------
     ethr =  1.78E-09,  avg # of iterations =  2.0

     total cpu time spent up to now is       24.2 secs

     total energy              =     -82.56386767 Ry
     estimated scf accuracy    <          6.8E-09 Ry

     iteration # 12     ecut=    50.00 Ry     beta= 0.40
     Davidson diagonalization with overlap

---- Real-time Memory Report at c_bands before calling an iterative solver
           119 MiB given to the printing process from OS
             0 MiB allocation reported by mallinfo(arena+hblkhd)
        226163 MiB available memory on the node where the printing process lives
------------------
     ethr =  5.65E-11,  avg # of iterations =  2.0

     total cpu time spent up to now is       25.2 secs

     End of self-consistent calculation

          k = 0.0000 0.0000 0.0000 (  5041 PWs)   bands (ev):

   -23.5933 -22.1290  -9.9258  -8.2256  -8.2256  -7.1968  -7.1968  -5.8553
     0.1968   4.9224

     occupation numbers 
     1.0000   1.0000   1.0000   1.0000   1.0000   0.0963   0.0963   0.0000
     0.0000   0.0000

          k = 0.0000 0.0000 0.1111 (  5041 PWs)   bands (ev):

   -23.5932 -22.1289  -9.9253  -8.2326  -8.2250  -7.1990  -7.1966  -5.8552
     0.2829   4.5480

     occupation numbers 
     1.0000   1.0000   1.0000   1.0000   1.0000   0.1007   0.0959   0.0000
     0.0000   0.0000

          k = 0.0000 0.0000 0.2222 (  5049 PWs)   bands (ev):

   -23.5928 -22.1288  -9.9243  -8.2502  -8.2235  -7.2044  -7.1962  -5.8551
     0.5365   3.7790

     occupation numbers 
     1.0000   1.0000   1.0000   1.0000   1.0000   0.1126   0.0950   0.0000
     0.0000   0.0000

          k = 0.0000 0.0000 0.3334 (  5025 PWs)   bands (ev):

   -23.5924 -22.1285  -9.9230  -8.2701  -8.2217  -7.2106  -7.1956  -5.8550
     0.9447   2.9551

     occupation numbers 
     1.0000   1.0000   1.0000   1.0000   1.0000   0.1273   0.0940   0.0000
     0.0000   0.0000

          k = 0.0000 0.0000 0.4445 (  5034 PWs)   bands (ev):

   -23.5921 -22.1284  -9.9222  -8.2829  -8.2206  -7.2147  -7.1953  -5.8549
     1.4817   2.1984

     occupation numbers 
     1.0000   1.0000   1.0000   1.0000   1.0000   0.1376   0.0933   0.0000
     0.0000   0.0000

          k = 0.0000 0.1111 0.1111 (  5037 PWs)   bands (ev):

   -23.5930 -22.1289  -9.9249  -8.2324  -8.2315  -7.1988  -7.1987  -5.8552
     0.3682   4.4044

     occupation numbers 
     1.0000   1.0000   1.0000   1.0000   1.0000   0.1004   0.1002   0.0000
     0.0000   0.0000

          k = 0.0000 0.1111 0.2222 (  5053 PWs)   bands (ev):

   -23.5927 -22.1287  -9.9238  -8.2495  -8.2303  -7.2042  -7.1983  -5.8551
     0.6197   3.8134

     occupation numbers 
     1.0000   1.0000   1.0000   1.0000   1.0000   0.1121   0.0993   0.0000
     0.0000   0.0000

          k = 0.0000 0.1111 0.3334 (  5053 PWs)   bands (ev):

   -23.5922 -22.1285  -9.9226  -8.2692  -8.2284  -7.2104  -7.1978  -5.8549
     1.0242   3.0220

     occupation numbers 
     1.0000   1.0000   1.0000   1.0000   1.0000   0.1267   0.0982   0.0000
     0.0000   0.0000

          k = 0.0000 0.1111 0.4445 (  5024 PWs)   bands (ev):

   -23.5919 -22.1283  -9.9218  -8.2819  -8.2271  -7.2144  -7.1974  -5.8549
     1.5538   2.2766

     occupation numbers 
     1.0000   1.0000   1.0000   1.0000   1.0000   0.1369   0.0975   0.0000
     0.0000   0.0000

          k = 0.0000 0.2222 0.2222 (  5017 PWs)   bands (ev):

   -23.5923 -22.1285  -9.9228  -8.2486  -8.2464  -7.2039  -7.2036  -5.8550
     0.8645   3.7722

     occupation numbers 
     1.0000   1.0000   1.0000   1.0000   1.0000   0.1113   0.1106   0.0000
     0.0000   0.0000

          k = 0.0000 0.2222 0.3334 (  5037 PWs)   bands (ev):

   -23.5919 -22.1283  -9.9216  -8.2668  -8.2451  -7.2098  -7.2031  -5.8548
     1.2574   3.2067

     occupation numbers 
     1.0000   1.0000   1.0000   1.0000   1.0000   0.1253   0.1096   0.0000
     0.0000   0.0000

          k = 0.0000 0.2222 0.4445 (  5040 PWs)   bands (ev):

   -23.5916 -22.1282  -9.9208  -8.2793  -8.2437  -7.2138  -7.2027  -5.8548
     1.7645   2.5051

     occupation numbers 
     1.0000   1.0000   1.0000   1.0000   1.0000   0.1354   0.1088   0.0000
     0.0000   0.0000

          k = 0.0000 0.3334 0.3334 (  5027 PWs)   bands (ev):

   -23.5914 -22.1281  -9.9204  -8.2650  -8.2633  -7.2093  -7.2091  -5.8547
     1.6299   3.3421

     occupation numbers 
     1.0000   1.0000   1.0000   1.0000   1.0000   0.1240   0.1234   0.0000
     0.0000   0.0000

          k = 0.0000 0.3334 0.4445 (  5033 PWs)   bands (ev):

   -23.5912 -22.1279  -9.9196  -8.2764  -8.2624  -7.2131  -7.2088  -5.8546
     2.1007   2.8496

     occupation numbers 
     1.0000   1.0000   1.0000   1.0000   1.0000   0.1336   0.1227   0.0000
     0.0000   0.0000

          k = 0.0000 0.4445 0.4445 (  5067 PWs)   bands (ev):

   -23.5909 -22.1278  -9.9189  -8.2746  -8.2743  -7.2127  -7.2127  -5.8546
     2.5318   3.1296

     occupation numbers 
     1.0000   1.0000   1.0000   1.0000   1.0000   0.1325   0.1324   0.0000
     0.0000   0.0000

          k = 0.1136 0.1111 0.1111 (  5026 PWs)   bands (ev):

   -23.5787 -22.1507  -9.8508  -8.2172  -8.2163  -7.2176  -7.2175  -5.9518
     0.4498   4.4761

     occupation numbers 
     1.0000   1.0000   1.0000   1.0000   1.0000   0.1455   0.1451   0.0000
     0.0000   0.0000

          k = 0.1136 0.1111 0.2222 (  5046 PWs)   bands (ev):

   -23.5783 -22.1505  -9.8497  -8.2339  -8.2151  -7.2235  -7.2170  -5.9514
     0.6998   3.8845

     occupation numbers 
     1.0000   1.0000   1.0000   1.0000   1.0000   0.1621   0.1439   0.0000
     0.0000   0.0000

          k = 0.1136 0.1111 0.3334 (  5043 PWs)   bands (ev):

   -23.5779 -22.1503  -9.8485  -8.2531  -8.2132  -7.2302  -7.2164  -5.9510
     1.1021   3.0952

     occupation numbers 
     1.0000   1.0000   1.0000   1.0000   1.0000   0.1827   0.1423   0.0000
     0.0000   0.0000

          k = 0.1136 0.1111 0.4445 (  5034 PWs)   bands (ev):

   -23.5776 -22.1501  -9.8478  -8.2656  -8.2120  -7.2345  -7.2161  -5.9508
     1.6279   2.3537

     occupation numbers 
     1.0000   1.0000   1.0000   1.0000   1.0000   0.1970   0.1412   0.0000
     0.0000   0.0000

          k = 0.1136 0.2222 0.2222 (  5035 PWs)   bands (ev):

   -23.5779 -22.1503  -9.8487  -8.2330  -8.2308  -7.2231  -7.2227  -5.9511
     0.9433   3.8404

     occupation numbers 
     1.0000   1.0000   1.0000   1.0000   1.0000   0.1609   0.1598   0.0000
     0.0000   0.0000

          k = 0.1136 0.2222 0.3334 (  5049 PWs)   bands (ev):

   -23.5775 -22.1501  -9.8476  -8.2508  -8.2296  -7.2295  -7.2222  -5.9507
     1.3341   3.2779

     occupation numbers 
     1.0000   1.0000   1.0000   1.0000   1.0000   0.1807   0.1585   0.0000
     0.0000   0.0000

          k = 0.1136 0.2222 0.4445 (  5040 PWs)   bands (ev):

   -23.5772 -22.1499  -9.8468  -8.2631  -8.2282  -7.2338  -7.2218  -5.9504
     1.8376   2.5806

     occupation numbers 
     1.0000   1.0000   1.0000   1.0000   1.0000   0.1948   0.1572   0.0000
     0.0000   0.0000

          k = 0.1136 0.3334 0.3334 (  5041 PWs)   bands (ev):

   -23.5771 -22.1498  -9.8464  -8.2490  -8.2474  -7.2289  -7.2287  -5.9503
     1.7048   3.4080

     occupation numbers 
     1.0000   1.0000   1.0000   1.0000   1.0000   0.1788   0.1779   0.0000
     0.0000   0.0000

          k = 0.1136 0.3334 0.4445 (  5026 PWs)   bands (ev):

   -23.5768 -22.1497  -9.8457  -8.2602  -8.2465  -7.2331  -7.2283  -5.9501
     2.1730   2.9214

     occupation numbers 
     1.0000   1.0000   1.0000   1.0000   1.0000   0.1922   0.1769   0.0000
     0.0000   0.0000

          k = 0.1136 0.4445 0.4445 (  5055 PWs)   bands (ev):

   -23.5766 -22.1496  -9.8449  -8.2585  -8.2582  -7.2326  -7.2325  -5.9499
     2.6042   3.1944

     occupation numbers 
     1.0000   1.0000   1.0000   1.0000   1.0000   0.1906   0.1904   0.0000
     0.0000   0.0000

          k = 0.2272 0.2222 0.2222 (  5037 PWs)   bands (ev):

   -23.5397 -22.2073  -9.6450  -8.1906  -8.1887  -7.2746  -7.2740  -6.2093
     1.1769   4.0443

     occupation numbers 
     1.0000   1.0000   1.0000   1.0000   1.0000   0.3621   0.3593   0.0000
     0.0000   0.0000

          k = 0.2272 0.2222 0.3334 (  5024 PWs)   bands (ev):

   -23.5393 -22.2070  -9.6440  -8.2074  -8.1876  -7.2823  -7.2734  -6.2083
     1.5618   3.4900

     occupation numbers 
     1.0000   1.0000   1.0000   1.0000   1.0000   0.4003   0.3566   0.0000
     0.0000   0.0000

          k = 0.2272 0.2222 0.4445 (  5049 PWs)   bands (ev):

   -23.5390 -22.2068  -9.6433  -8.2188  -8.1863  -7.2876  -7.2729  -6.2077
     2.0553   2.8052

     occupation numbers 
     1.0000   1.0000   1.0000   1.0000   1.0000   0.4268   0.3541   0.0000
     0.0000   0.0000

          k = 0.2272 0.3334 0.3334 (  5027 PWs)   bands (ev):

   -23.5389 -22.2067  -9.6430  -8.2057  -8.2042  -7.2816  -7.2812  -6.2074
     1.9275   3.6054

     occupation numbers 
     1.0000   1.0000   1.0000   1.0000   1.0000   0.3966   0.3944   0.0000
     0.0000   0.0000

          k = 0.2272 0.3334 0.4445 (  5035 PWs)   bands (ev):

   -23.5386 -22.2066  -9.6423  -8.2162  -8.2034  -7.2865  -7.2808  -6.2068
     2.3888   3.1347

     occupation numbers 
     1.0000   1.0000   1.0000   1.0000   1.0000   0.4216   0.3924   0.0000
     0.0000   0.0000

          k = 0.2272 0.4445 0.4445 (  5029 PWs)   bands (ev):

   -23.5383 -22.2064  -9.6417  -8.2146  -8.2144  -7.2859  -7.2858  -6.2062
     2.8205   3.3883

     occupation numbers 
     1.0000   1.0000   1.0000   1.0000   1.0000   0.4184   0.4180   0.0000
     0.0000   0.0000

          k = 0.3407 0.3334 0.3334 (  5046 PWs)   bands (ev):

   -23.4914 -22.2753  -9.3722  -8.1497  -8.1485  -7.3482  -7.3475  -6.5373
     2.2940   3.9321

     occupation numbers 
     1.0000   1.0000   1.0000   1.0000   1.0000   0.7555   0.7520   0.0000
     0.0000   0.0000

          k = 0.3407 0.3334 0.4445 (  5007 PWs)   bands (ev):

   -23.4911 -22.2751  -9.3717  -8.1593  -8.1477  -7.3542  -7.3471  -6.5363
     2.7454   3.4843

     occupation numbers 
     1.0000   1.0000   1.0000   1.0000   1.0000   0.7863   0.7495   0.0000
     0.0000   0.0000

          k = 0.3407 0.4445 0.4445 (  5017 PWs)   bands (ev):

   -23.4909 -22.2749  -9.3712  -8.1579  -8.1577  -7.3534  -7.3533  -6.5354
     3.1779   3.7090

     occupation numbers 
     1.0000   1.0000   1.0000   1.0000   1.0000   0.7821   0.7815   0.0000
     0.0000   0.0000

          k = 0.4543 0.4445 0.4445 (  4998 PWs)   bands (ev):

   -23.4570 -22.3224  -9.1579  -8.1152  -8.1150  -7.4031  -7.4030  -6.7860
     3.6699   4.1440

     occupation numbers 
     1.0000   1.0000   1.0000   1.0000   1.0000   0.9867   0.9863   0.0000
     0.0000   0.0000

          k = 0.1136 0.0000 0.0000 (  5041 PWs)   bands (ev):

   -23.5790 -22.1508  -9.8516  -8.2106  -8.2106  -7.2154  -7.2154  -5.9520
     0.2793   5.0757

     occupation numbers 
     1.0000   1.0000   1.0000   1.0000   1.0000   0.1395   0.1395   0.0000
     0.0000   0.0000

          k = 0.2272 0.0000 0.0000 (  5049 PWs)   bands (ev):

   -23.5407 -22.2079  -9.6476  -8.1697  -8.1697  -7.2652  -7.2652  -6.2118
     0.5235   3.9648

     occupation numbers 
     1.0000   1.0000   1.0000   1.0000   1.0000   0.3185   0.3185   0.0000
     0.0000   0.0000

          k = 0.3407 0.0000 0.0000 (  5025 PWs)   bands (ev):

   -23.4931 -22.2766  -9.3757  -8.1171  -8.1171  -7.3280  -7.3280  -6.5448
     0.9218   2.9910

     occupation numbers 
     1.0000   1.0000   1.0000   1.0000   1.0000   0.6465   0.6465   0.0000
     0.0000   0.0000

          k = 0.4543 0.0000 0.0000 (  5034 PWs)   bands (ev):

   -23.4591 -22.3242  -9.1611  -8.0778  -8.0778  -7.3738  -7.3738  -6.7982
     1.4679   2.1583

     occupation numbers 
     1.0000   1.0000   1.0000   1.0000   1.0000   0.8786   0.8786   0.0000
     0.0000   0.0000

          k = 0.1136-0.1111 0.0000 (  5037 PWs)   bands (ev):

   -23.5788 -22.1507  -9.8512  -8.2174  -8.2100  -7.2178  -7.2152  -5.9519
     0.3649   4.6212

     occupation numbers 
     1.0000   1.0000   1.0000   1.0000   1.0000   0.1459   0.1390   0.0000
     0.0000   0.0000

          k = 0.2272-0.1111 0.0000 (  5053 PWs)   bands (ev):

   -23.5405 -22.2078  -9.6472  -8.1761  -8.1691  -7.2681  -7.2650  -6.2114
     0.6077   4.0341

     occupation numbers 
     1.0000   1.0000   1.0000   1.0000   1.0000   0.3315   0.3174   0.0000
     0.0000   0.0000

          k = 0.1136 0.2222 0.0000 (  5053 PWs)   bands (ev):

   -23.5785 -22.1506  -9.8501  -8.2346  -8.2084  -7.2237  -7.2147  -5.9515
     0.6171   3.8511

     occupation numbers 
     1.0000   1.0000   1.0000   1.0000   1.0000   0.1627   0.1377   0.0000
     0.0000   0.0000

          k = 0.3407-0.1111 0.0000 (  5053 PWs)   bands (ev):

   -23.4929 -22.2765  -9.3755  -8.1229  -8.1166  -7.3315  -7.3277  -6.5441
     1.0039   3.0641

     occupation numbers 
     1.0000   1.0000   1.0000   1.0000   1.0000   0.6661   0.6448   0.0000
     0.0000   0.0000

          k = 0.1136 0.3334 0.0000 (  5053 PWs)   bands (ev):

   -23.5780 -22.1503  -9.8489  -8.2540  -8.2067  -7.2304  -7.2142  -5.9511
     1.0231   3.0288

     occupation numbers 
     1.0000   1.0000   1.0000   1.0000   1.0000   0.1835   0.1362   0.0000
     0.0000   0.0000

          k = 0.4543-0.1111 0.0000 (  5024 PWs)   bands (ev):

   -23.4589 -22.3241  -9.1609  -8.0831  -8.0774  -7.3780  -7.3735  -6.7974
     1.5475   2.2348

     occupation numbers 
     1.0000   1.0000   1.0000   1.0000   1.0000   0.8962   0.8770   0.0000
     0.0000   0.0000

          k = 0.1136 0.4445 0.0000 (  5024 PWs)   bands (ev):

   -23.5778 -22.1502  -9.8482  -8.2665  -8.2056  -7.2348  -7.2138  -5.9509
     1.5563   2.2758

     occupation numbers 
     1.0000   1.0000   1.0000   1.0000   1.0000   0.1980   0.1352   0.0000
     0.0000   0.0000

          k = 0.2272-0.2222 0.0000 (  5017 PWs)   bands (ev):

   -23.5402 -22.2076  -9.6463  -8.1922  -8.1677  -7.2753  -7.2644  -6.2105
     0.8559   4.0669

     occupation numbers 
     1.0000   1.0000   1.0000   1.0000   1.0000   0.3656   0.3146   0.0000
     0.0000   0.0000

          k = 0.3407-0.2222 0.0000 (  5037 PWs)   bands (ev):

   -23.4926 -22.2762  -9.3748  -8.1374  -8.1153  -7.3405  -7.3269  -6.5426
     1.2462   3.2802

     occupation numbers 
     1.0000   1.0000   1.0000   1.0000   1.0000   0.7148   0.6406   0.0000
     0.0000   0.0000

          k = 0.2272 0.3334 0.0000 (  5037 PWs)   bands (ev):

   -23.5398 -22.2073  -9.6452  -8.2103  -8.1661  -7.2835  -7.2637  -6.2095
     1.2555   3.2487

     occupation numbers 
     1.0000   1.0000   1.0000   1.0000   1.0000   0.4061   0.3115   0.0000
     0.0000   0.0000

          k = 0.4543-0.2222 0.0000 (  5040 PWs)   bands (ev):

   -23.4586 -22.3239  -9.1604  -8.0963  -8.0762  -7.3884  -7.3726  -6.7953
     1.7822   2.4610

     occupation numbers 
     1.0000   1.0000   1.0000   1.0000   1.0000   0.9373   0.8731   0.0000
     0.0000   0.0000

          k = 0.2272 0.4445 0.0000 (  5040 PWs)   bands (ev):

   -23.5395 -22.2071  -9.6445  -8.2220  -8.1651  -7.2888  -7.2632  -6.2088
     1.7776   2.5064

     occupation numbers 
     1.0000   1.0000   1.0000   1.0000   1.0000   0.4333   0.3094   0.0000
     0.0000   0.0000

          k = 0.3407-0.3334 0.0000 (  5027 PWs)   bands (ev):

   -23.4922 -22.2759  -9.3739  -8.1538  -8.1139  -7.3507  -7.3260  -6.5408
     1.6362   3.6239

     occupation numbers 
     1.0000   1.0000   1.0000   1.0000   1.0000   0.7681   0.6357   0.0000
     0.0000   0.0000

          k = 0.4543-0.3334 0.0000 (  5033 PWs)   bands (ev):

   -23.4583 -22.3235  -9.1598  -8.1113  -8.0749  -7.4001  -7.3715  -6.7931
     2.1592   2.8259

     occupation numbers 
     1.0000   1.0000   1.0000   1.0000   1.0000   0.9775   0.8685   0.0000
     0.0000   0.0000

          k = 0.3407 0.4445 0.0000 (  5033 PWs)   bands (ev):

   -23.4920 -22.2758  -9.3734  -8.1644  -8.1129  -7.3572  -7.3254  -6.5397
     2.1407   2.8855

     occupation numbers 
     1.0000   1.0000   1.0000   1.0000   1.0000   0.8012   0.6325   0.0000
     0.0000   0.0000

          k = 0.4543-0.4445 0.0000 (  5067 PWs)   bands (ev):

   -23.4580 -22.3233  -9.1594  -8.1210  -8.0740  -7.4077  -7.3709  -6.7917
     2.6394   3.2852

     occupation numbers 
     1.0000   1.0000   1.0000   1.0000   1.0000   0.9999   0.8655   0.0000
     0.0000   0.0000

          k = 0.2272-0.1111 0.1111 (  5046 PWs)   bands (ev):

   -23.5404 -22.2077  -9.6468  -8.1759  -8.1751  -7.2680  -7.2677  -6.2111
     0.6912   4.1031

     occupation numbers 
     1.0000   1.0000   1.0000   1.0000   1.0000   0.3309   0.3298   0.0000
     0.0000   0.0000

          k = 0.3407-0.1111 0.1111 (  5043 PWs)   bands (ev):

   -23.4928 -22.2764  -9.3752  -8.1227  -8.1220  -7.3314  -7.3310  -6.5435
     1.0854   3.1368

     occupation numbers 
[...]
     1.0000   1.0000   1.0000   1.0000   1.0000   1.0000   0.0028   0.0000
     0.0000   0.0000

          k = 0.3259 0.5895 0.5895 (  5027 PWs)   bands (ev):

   -25.4568 -12.7887  -6.5211  -6.1484  -5.9077   0.8040   0.8845  11.2809
    11.9712  17.1095

     occupation numbers 
     1.0000   1.0000   1.0000   1.0000   1.0000   1.0345   1.0821   0.0000
     0.0000   0.0000

          k = 0.3259 0.5895 0.7859 (  5035 PWs)   bands (ev):

   -25.4153 -12.7181  -6.5521  -6.3019  -5.9112   0.5844   0.9089  11.4223
    11.9599  16.5604

     occupation numbers 
     1.0000   1.0000   1.0000   1.0000   1.0000   1.0000   1.0804   0.0000
     0.0000   0.0000

          k = 0.3259 0.7859 0.7859 (  5029 PWs)   bands (ev):

   -25.3748 -12.6500  -6.4743  -6.4282  -6.0332   0.6521   0.6645  11.2141
    12.0023  16.9593

     occupation numbers 
     1.0000   1.0000   1.0000   1.0000   1.0000   1.0006   1.0009   0.0000
     0.0000   0.0000

          k = 0.4889 0.5895 0.5895 (  5046 PWs)   bands (ev):

   -25.4131 -13.3130  -6.1897  -6.0147  -5.1396   0.4407   0.5499  10.7213
    12.1470  17.8345

     occupation numbers 
     1.0000   1.0000   1.0000   1.0000   1.0000   1.0000   1.0000   0.0000
     0.0000   0.0000

          k = 0.4889 0.5895 0.7859 (  5007 PWs)   bands (ev):

   -25.3726 -13.2362  -6.3834  -6.0257  -5.1262   0.1989   0.5766  10.8392
    12.1920  15.9090

     occupation numbers 
     1.0000   1.0000   1.0000   1.0000   1.0000   1.0000   1.0000   0.0000
     0.0000   0.0000

          k = 0.4889 0.7859 0.7859 (  5017 PWs)   bands (ev):

   -25.3331 -13.1622  -6.3086  -6.2853  -5.1167   0.2838   0.3004  10.9161
    11.9553  17.6614

     occupation numbers 
     1.0000   1.0000   1.0000   1.0000   1.0000   1.0000   1.0000   0.0000
     0.0000   0.0000

          k = 0.6518 0.7859 0.7859 (  4998 PWs)   bands (ev):

   -25.3053 -13.4516  -6.2046  -6.1855  -4.5211   0.0429   0.0623  10.2131
    12.8423  14.9290

     occupation numbers 
     1.0000   1.0000   1.0000   1.0000   1.0000   1.0000   1.0000   0.0000
     0.0000   0.0000

          k = 0.1630 0.0000 0.0000 (  5041 PWs)   bands (ev):

   -25.7860 -12.6297  -7.6503  -5.1794  -5.1794   1.8751   1.8751   8.1472
    12.7319  16.7577

     occupation numbers 
     1.0000   1.0000   1.0000   1.0000   1.0000   0.0000   0.0000   0.0000
     0.0000   0.0000

          k = 0.3259 0.0000 0.0000 (  5049 PWs)   bands (ev):

   -25.7425 -13.2679  -6.6483  -5.0993  -5.0993   1.6822   1.6822   8.4753
    11.4717  14.4811

     occupation numbers 
     1.0000   1.0000   1.0000   1.0000   1.0000   0.0000   0.0000   0.0000
     0.0000   0.0000

          k = 0.4889 0.0000 0.0000 (  5025 PWs)   bands (ev):

   -25.6919 -13.8348  -5.6137  -5.0039  -5.0039   1.4617   1.4617   8.8836
    10.2342  13.2625

     occupation numbers 
     1.0000   1.0000   1.0000   1.0000   1.0000   0.0000   0.0000   0.0000
     0.0000   0.0000

          k = 0.6518 0.0000 0.0000 (  5034 PWs)   bands (ev):

   -25.6581 -14.1524  -4.9503  -4.9388  -4.9388   1.3166   1.3166   8.8394
     9.9478  12.3826

     occupation numbers 
     1.0000   1.0000   1.0000   1.0000   1.0000   0.0016   0.0016   0.0000
     0.0000   0.0000

          k = 0.1630-0.1965 0.0000 (  5037 PWs)   bands (ev):

   -25.7629 -12.5965  -7.6235  -5.3961  -5.1594   1.7319   1.8876   8.4528
    12.7536  15.9637

     occupation numbers 
     1.0000   1.0000   1.0000   1.0000   1.0000   0.0000   0.0000   0.0000
     0.0000   0.0000

          k = 0.3259-0.1965 0.0000 (  5053 PWs)   bands (ev):

   -25.7198 -13.2302  -6.6377  -5.2980  -5.0799   1.5100   1.6966   8.7836
    11.5323  14.6471

     occupation numbers 
     1.0000   1.0000   1.0000   1.0000   1.0000   0.0000   0.0000   0.0000
     0.0000   0.0000

          k = 0.1630 0.3930 0.0000 (  5053 PWs)   bands (ev):

   -25.7036 -12.5109  -7.5490  -5.9201  -5.1082   1.3785   1.9192   9.2521
    12.8091  15.8289

     occupation numbers 
     1.0000   1.0000   1.0000   1.0000   1.0000   0.0001   0.0000   0.0000
     0.0000   0.0000

          k = 0.4889-0.1965 0.0000 (  5053 PWs)   bands (ev):

   -25.6698 -13.7937  -5.6584  -5.1433  -4.9852   1.2566   1.4782   9.1566
    10.3804  13.4313

     occupation numbers 
     1.0000   1.0000   1.0000   1.0000   1.0000   0.0116   0.0000   0.0000
     0.0000   0.0000

          k = 0.1630 0.5895 0.0000 (  5053 PWs)   bands (ev):

   -25.6350 -12.4102  -7.4387  -6.4971  -5.0492   0.9903   1.9554  10.3029
    12.8699  15.0066

     occupation numbers 
     1.0000   1.0000   1.0000   1.0000   1.0000   0.9007   0.0000   0.0000
     0.0000   0.0000

          k = 0.6518-0.1965 0.0000 (  5024 PWs)   bands (ev):

   -25.6364 -14.1095  -5.2462  -4.9206  -4.8239   1.0899   1.3345   8.9804
    10.2754  12.5291

     occupation numbers 
     1.0000   1.0000   1.0000   1.0000   1.0000   0.3862   0.0009   0.0000
     0.0000   0.0000

          k = 0.1630 0.7859 0.0000 (  5024 PWs)   bands (ev):

   -25.5895 -12.3424  -7.2997  -6.9199  -5.0102   0.7436   1.9792  11.2691
    12.8806  14.0974

     occupation numbers 
     1.0000   1.0000   1.0000   1.0000   1.0000   1.0096   0.0000   0.0000
     0.0000   0.0000

          k = 0.3259-0.3930 0.0000 (  5017 PWs)   bands (ev):

   -25.6618 -13.1324  -6.6234  -5.7601  -5.0303   1.0896   1.7331   9.5900
    11.6842  15.0496

     occupation numbers 
     1.0000   1.0000   1.0000   1.0000   1.0000   0.3874   0.0000   0.0000
     0.0000   0.0000

          k = 0.4889-0.3930 0.0000 (  5037 PWs)   bands (ev):

   -25.6132 -13.6870  -5.9244  -5.3177  -4.9375   0.7620   1.5202   9.7834
    10.8331  13.9068

     occupation numbers 
     1.0000   1.0000   1.0000   1.0000   1.0000   1.0149   0.0000   0.0000
     0.0000   0.0000

          k = 0.3259 0.5895 0.0000 (  5037 PWs)   bands (ev):

   -25.5946 -13.0169  -6.6800  -6.1718  -4.9731   0.6339   1.7750  10.6475
    11.8585  15.1541

     occupation numbers 
     1.0000   1.0000   1.0000   1.0000   1.0000   1.0003   0.0000   0.0000
     0.0000   0.0000

          k = 0.6518-0.3930 0.0000 (  5040 PWs)   bands (ev):

   -25.5808 -13.9983  -5.7356  -4.8744  -4.7687   0.5469   1.3802   9.3034
    11.1683  12.9478

     occupation numbers 
     1.0000   1.0000   1.0000   1.0000   1.0000   1.0000   0.0001   0.0000
     0.0000   0.0000

          k = 0.3259 0.7859 0.0000 (  5040 PWs)   bands (ev):

   -25.5501 -12.9389  -6.8345  -6.3040  -4.9354   0.3467   1.8026  11.6055
    11.9746  14.4759

     occupation numbers 
     1.0000   1.0000   1.0000   1.0000   1.0000   1.0000   0.0000   0.0000
     0.0000   0.0000

          k = 0.4889-0.5895 0.0000 (  5027 PWs)   bands (ev):

   -25.5477 -13.5609  -6.3615  -5.3438  -4.8827   0.2330   1.5685  10.3246
    11.6577  14.5731

     occupation numbers 
     1.0000   1.0000   1.0000   1.0000   1.0000   1.0000   0.0000   0.0000
     0.0000   0.0000

          k = 0.6518-0.5895 0.0000 (  5033 PWs)   bands (ev):

   -25.5165 -13.8667  -6.2306  -4.8212  -4.7317  -0.0288   1.4327   9.6353
    12.3916  13.5947

     occupation numbers 
     1.0000   1.0000   1.0000   1.0000   1.0000   1.0000   0.0000   0.0000
     0.0000   0.0000

          k = 0.4889 0.7859 0.0000 (  5033 PWs)   bands (ev):

   -25.5043 -13.4756  -6.6544  -5.3355  -4.8465  -0.0974   1.6004  10.5876
    12.5727  14.9414

     occupation numbers 
     1.0000   1.0000   1.0000   1.0000   1.0000   1.0000   0.0000   0.0000
     0.0000   0.0000

          k = 0.6518-0.7859 0.0000 (  5067 PWs)   bands (ev):

   -25.4739 -13.7777  -6.5335  -4.7861  -4.7107  -0.3865   1.4674   9.8402
    13.4594  14.5107

     occupation numbers 
     1.0000   1.0000   1.0000   1.0000   1.0000   1.0000   0.0000   0.0000
     0.0000   0.0000

          k = 0.3259-0.1965 0.1965 (  5046 PWs)   bands (ev):

   -25.6974 -13.1929  -6.6261  -5.2777  -5.2740   1.5027   1.5526   9.0704
    11.5888  17.1998

     occupation numbers 
     1.0000   1.0000   1.0000   1.0000   1.0000   0.0000   0.0000   0.0000
     0.0000   0.0000

          k = 0.4889-0.1965 0.1965 (  5043 PWs)   bands (ev):

   -25.6479 -13.7531  -5.6886  -5.1717  -5.0862   1.2429   1.3127   9.3968
    10.5294  13.6008

     occupation numbers 
     1.0000   1.0000   1.0000   1.0000   1.0000   0.0173   0.0019   0.0000
     0.0000   0.0000

          k = 0.6518-0.1965 0.1965 (  5034 PWs)   bands (ev):

   -25.6149 -14.0672  -5.3011  -5.1017  -4.7453   1.0717   1.1550   9.1041
    10.5899  12.6725

     occupation numbers 
     1.0000   1.0000   1.0000   1.0000   1.0000   0.4804   0.1369   0.0000
     0.0000   0.0000

          k = 0.3259-0.3930 0.1965 (  5035 PWs)   bands (ev):

   -25.6399 -13.0964  -6.6078  -5.7336  -5.2191   1.1118   1.5756   9.8130
    11.7299  15.2591

     occupation numbers 
     1.0000   1.0000   1.0000   1.0000   1.0000   0.2851   0.0000   0.0000
     0.0000   0.0000

          k = 0.4889-0.3930 0.1965 (  5049 PWs)   bands (ev):

   -25.5918 -13.6479  -5.9098  -5.3539  -5.0611   0.7882   1.3362   9.9298
    10.9915  14.0792

     occupation numbers 
     1.0000   1.0000   1.0000   1.0000   1.0000   1.0259   0.0008   0.0000
     0.0000   0.0000

          k = 0.3259 0.5895 0.1965 (  5049 PWs)   bands (ev):

   -25.5735 -12.9825  -6.6508  -6.1512  -5.1536   0.6650   1.6252  10.7703
    11.8878  15.4777

     occupation numbers 
     1.0000   1.0000   1.0000   1.0000   1.0000   1.0009   0.0000   0.0000
     0.0000   0.0000

          k = 0.6518-0.3930 0.1965 (  5040 PWs)   bands (ev):

   -25.5598 -13.9575  -5.7150  -5.1184  -4.6892   0.5757   1.1789   9.3930
    11.4306  13.0828

     occupation numbers 
     1.0000   1.0000   1.0000   1.0000   1.0000   1.0000   0.0843   0.0000
     0.0000   0.0000

          k = 0.3259 0.7859 0.1965 (  5040 PWs)   bands (ev):

   -25.5294 -12.9056  -6.7914  -6.2928  -5.1102   0.3827   1.6581  11.6262
    11.9641  14.8565

     occupation numbers 
     1.0000   1.0000   1.0000   1.0000   1.0000   1.0000   0.0000   0.0000
     0.0000   0.0000

          k = 0.4889-0.5895 0.1965 (  5041 PWs)   bands (ev):

   -25.5270 -13.5236  -6.3266  -5.3848  -5.0068   0.2713   1.3946  10.3896
    11.7703  14.7631

     occupation numbers 
     1.0000   1.0000   1.0000   1.0000   1.0000   1.0000   0.0001   0.0000
     0.0000   0.0000

          k = 0.6518-0.5895 0.1965 (  5026 PWs)   bands (ev):

   -25.4962 -13.8278  -6.1966  -5.0667  -4.6498   0.0140   1.2429   9.6961
    12.5445  13.7192

     occupation numbers 
     1.0000   1.0000   1.0000   1.0000   1.0000   1.0000   0.0173   0.0000
     0.0000   0.0000

          k = 0.4889 0.7859 0.1965 (  5026 PWs)   bands (ev):

   -25.4841 -13.4395  -6.6133  -5.3742  -4.9697  -0.0528   1.4335  10.6266
    12.5606  15.2979

     occupation numbers 
     1.0000   1.0000   1.0000   1.0000   1.0000   1.0000   0.0000   0.0000
     0.0000   0.0000

          k = 0.6518-0.7859 0.1965 (  5055 PWs)   bands (ev):

   -25.4540 -13.7402  -6.4944  -5.0295  -4.6272  -0.3363   1.2857   9.8858
    13.4765  14.5555

     occupation numbers 
     1.0000   1.0000   1.0000   1.0000   1.0000   1.0000   0.0047   0.0000
     0.0000   0.0000

          k = 0.4889-0.3930 0.3930 (  5024 PWs)   bands (ev):

   -25.5373 -13.5465  -5.9365  -5.5789  -5.1537   0.7969   0.9470  10.2456
    11.4259  14.5531

     occupation numbers 
     1.0000   1.0000   1.0000   1.0000   1.0000   1.0304   1.0351   0.0000
     0.0000   0.0000

          k = 0.6518-0.3930 0.3930 (  5049 PWs)   bands (ev):

   -25.5062 -13.8518  -5.7338  -5.4975  -4.6334   0.5820   0.7592   9.6099
    12.0831  13.4668

     occupation numbers 
     1.0000   1.0000   1.0000   1.0000   1.0000   1.0000   1.0140   0.0000
     0.0000   0.0000

          k = 0.4889-0.5895 0.3930 (  5027 PWs)   bands (ev):

   -25.4742 -13.4269  -6.2397  -5.6512  -5.1354   0.3687   0.9698  10.5462
    11.9924  15.1925

     occupation numbers 
     1.0000   1.0000   1.0000   1.0000   1.0000   1.0000   0.9760   0.0000
     0.0000   0.0000

          k = 0.6518-0.5895 0.3930 (  5035 PWs)   bands (ev):

   -25.4441 -13.7272  -6.1112  -5.5141  -4.5958   0.1231   0.7815   9.8470
    12.8436  14.0305

     occupation numbers 
     1.0000   1.0000   1.0000   1.0000   1.0000   1.0000   1.0226   0.0000
     0.0000   0.0000

          k = 0.4889 0.7859 0.3930 (  5035 PWs)   bands (ev):

   -25.4324 -13.3461  -6.5074  -5.6228  -5.1123   0.0628   1.0237  10.7253
    12.4496  15.7363

     occupation numbers 
     1.0000   1.0000   1.0000   1.0000   1.0000   1.0000   0.7422   0.0000
     0.0000   0.0000

          k = 0.6518-0.7859 0.3930 (  5029 PWs)   bands (ev):

   -25.4031 -13.6430  -6.3938  -5.4692  -4.5746  -0.2064   0.8413   9.9997
    13.4141  14.5561

     occupation numbers 
     1.0000   1.0000   1.0000   1.0000   1.0000   1.0000   1.0592   0.0000
     0.0000   0.0000

          k = 0.6518-0.5895 0.5895 (  5007 PWs)   bands (ev):

   -25.3840 -13.6086  -6.0585  -5.9218  -4.5601   0.2029   0.3306  10.0169
    13.0575  14.3891

     occupation numbers 
     1.0000   1.0000   1.0000   1.0000   1.0000   1.0000   1.0000   0.0000
     0.0000   0.0000

          k = 0.6518-0.7859 0.5895 (  5017 PWs)   bands (ev):

   -25.3442 -13.5286  -6.2761  -5.9170  -4.5402  -0.0530   0.3588  10.1286
    13.1252  14.6851

     occupation numbers 
     1.0000   1.0000   1.0000   1.0000   1.0000   1.0000   1.0000   0.0000
     0.0000   0.0000

     the Fermi energy is     1.0870 ev

!    total energy              =     -83.00034891 Ry
     total all-electron energy =      -300.694134 Ry
     estimated scf accuracy    <          7.6E-11 Ry
     smearing contrib. (-TS)   =      -0.00010579 Ry
     internal energy E=F+TS    =     -83.00024312 Ry

     The total energy is F=E-TS. E is the sum of the following terms:
     one-electron contribution =     -35.64097998 Ry
     hartree contribution      =      22.86156605 Ry
     xc contribution           =     -14.41262873 Ry
     ewald contribution        =     -36.71217526 Ry
     one-center paw contrib.   =     -19.09602520 Ry
      -> PAW hartree energy AE =      25.51932918 Ry
      -> PAW hartree energy PS =     -25.41810674 Ry
      -> PAW xc energy AE      =     -16.58904575 Ry
      -> PAW xc energy PS      =       6.93981069 Ry
      -> total E_H with PAW    =      22.96278850 Ry
      -> total E_XC with PAW   =     -24.06186379 Ry

     convergence has been achieved in  11 iterations

     Forces acting on atoms (cartesian axes, Ry/au):

     atom    1 type  1   force =     0.01552971    0.00000000    0.00000000
     atom    2 type  1   force =    -0.01552971    0.00000000    0.00000000
     The non-local contrib.  to forces
     atom    1 type  1   force =     2.77477132    0.00000000    0.00000000
     atom    2 type  1   force =    -2.77477066    0.00000000    0.00000000
     The ionic contribution  to forces
     atom    1 type  1   force =   -10.32742515    0.00000000    0.00000000
     atom    2 type  1   force =    10.32742515   -0.00000000   -0.00000000
     The local contribution  to forces
     atom    1 type  1   force =     7.59596634    0.00000000    0.00000000
     atom    2 type  1   force =    -7.59596664   -0.00000000    0.00000000
     The core correction contribution to forces
     atom    1 type  1   force =    -0.02779713    0.00000000    0.00000000
     atom    2 type  1   force =     0.02779712    0.00000000    0.00000000
     The Hubbard contrib.    to forces
     atom    1 type  1   force =     0.00000000    0.00000000    0.00000000
     atom    2 type  1   force =     0.00000000    0.00000000    0.00000000
     The SCF correction term to forces
     atom    1 type  1   force =     0.00001448    0.00000000    0.00000000
     atom    2 type  1   force =    -0.00001454    0.00000000    0.00000000

     Total force =     0.021962     Total SCF correction =     0.000021


     Computing stress (Cartesian axis) and pressure

          total   stress  (Ry/bohr**3)                   (kbar)     P=       14.32
   0.00095050   0.00000000   0.00000000          139.82        0.00        0.00
   0.00000000  -0.00032919   0.00000000            0.00      -48.43        0.00
   0.00000000   0.00000000  -0.00032919            0.00        0.00      -48.43

     kinetic stress (kbar)  15912.03      0.00      0.00
                                0.00  18361.11      0.00
                                0.00      0.00  18361.11

     local   stress (kbar) -33086.62     -0.00      0.00
                               -0.00  -4629.78      0.00
                                0.00      0.00  -4629.78

     nonloc. stress (kbar)   3608.98      0.00      0.00
                                0.00   4010.14      0.00
                                0.00      0.00   4010.14

     hartree stress (kbar)  11908.29     -0.00     -0.00
                               -0.00   3188.09     -0.00
                               -0.00     -0.00   3188.09

     exc-cor stress (kbar)  -2865.07     -0.00      0.00
                               -0.00  -2947.56     -0.00
                                0.00     -0.00  -2947.56

     corecor stress (kbar)   -674.90     -0.00      0.00
                               -0.00   -680.84      0.00
                                0.00      0.00   -680.84

     ewald   stress (kbar)   5337.12     -0.00     -0.00
                               -0.00 -17349.59     -0.00
                               -0.00     -0.00 -17349.59

     hubbard stress (kbar)      0.00      0.00      0.00
                                0.00      0.00      0.00
                                0.00      0.00      0.00

     DFT-D   stress (kbar)      0.00      0.00      0.00
                                0.00      0.00      0.00
                                0.00      0.00      0.00

     XDM     stress (kbar)      0.00      0.00      0.00
                                0.00      0.00      0.00
                                0.00      0.00      0.00

     dft-nl  stress (kbar)      0.00      0.00      0.00
                                0.00      0.00      0.00
                                0.00      0.00      0.00

     TS-vdW  stress (kbar)      0.00      0.00      0.00
                                0.00      0.00      0.00
                                0.00      0.00      0.00

     MDB     stress (kbar)      0.00      0.00      0.00
                                0.00      0.00      0.00
                                0.00      0.00      0.00

     3D-RISM stress (kbar)      0.00      0.00      0.00
                                0.00      0.00      0.00
                                0.00      0.00      0.00

     Energy error            =      1.1E-02 Ry
     Gradient error          =      1.6E-02 Ry/Bohr
     Cell gradient error     =      1.4E+02 kbar

     number of scf cycles    =  40
     number of bfgs steps    =  39

     enthalpy           old  =     -82.9892927841 Ry
     enthalpy           new  =     -83.0003489144 Ry

     CASE: enthalpy          _new < enthalpy          _old


     WARNING: bfgs curvature condition failed, Theta= 0.015
     new trust radius        =       0.7882781825 bohr
     new conv_thr            =       0.0000000004 Ry

     new unit-cell volume =     93.34669 a.u.^3 (    13.83255 Ang^3 )
     density =      3.84132 g/cm^3

CELL_PARAMETERS (angstrom)
   3.438281799   0.000000000   0.000000000
   0.000000000   2.005766700   0.000000000
   0.000000000   0.000000000   2.005766700

ATOMIC_POSITIONS (angstrom)
O             0.1667900392        0.0000000000        0.0000000000
O             1.3845627083        0.0000000000        0.0000000000



     Writing config-only to output data dir ./out/aiida.save/
     NEW-OLD atomic charge density approx. for the potential

 %%%%%%%%%%%%%%%%%%%%%%%%%%%%%%%%%%%%%%%%%%%%%%%%%%%%%%%%%%%%%%%%%%%%%%%%%%%%%%
     Error in routine scale_h (1):
     Not enough space allocated for radial FFT: try restarting with a larger cell_factor.
 %%%%%%%%%%%%%%%%%%%%%%%%%%%%%%%%%%%%%%%%%%%%%%%%%%%%%%%%%%%%%%%%%%%%%%%%%%%%%%

     stopping ...
