spack_view: /pfs/lustrep1/scratch/project_465000416/sipintar/sirius-md/.spack-env/view
spack_view: /pfs/lustrep1/scratch/project_465000416/sipintar/sirius-md/.spack-env/view
spack_view: /pfs/lustrep1/scratch/project_465000416/sipintar/sirius-md/.spack-env/view
spack_view: /pfs/lustrep1/scratch/project_465000416/sipintar/sirius-md/.spack-env/view
spack_view: /pfs/lustrep1/scratch/project_465000416/sipintar/sirius-md/.spack-env/view
spack_view: /pfs/lustrep1/scratch/project_465000416/sipintar/sirius-md/.spack-env/view
spack_view: /pfs/lustrep1/scratch/project_465000416/sipintar/sirius-md/.spack-env/view
spack_view: /pfs/lustrep1/scratch/project_465000416/sipintar/sirius-md/.spack-env/view
SIRIUS 7.5.1, git hash: 716da3d7b0f886135eb7b6a6d013868eb9674ffc

     Program PWSCF v.7.2 starts on 14May2024 at  1:58:29 
        Git branch: feat/md
        Last git commit: b82c6e1dc331955aa93b6381cedf3292df8fe927
        Last git commit date: Fri Dec 22 21:56:42 2023 +0100
        Last git commit subject: call sirius_initialize_subspace in reset_gvectors

     This program is part of the open-source Quantum ESPRESSO suite
     for quantum simulation of materials; please cite
         "P. Giannozzi et al., J. Phys.:Condens. Matter 21 395502 (2009);
         "P. Giannozzi et al., J. Phys.:Condens. Matter 29 465901 (2017);
         "P. Giannozzi et al., J. Chem. Phys. 152 154105 (2020);
          URL http://www.quantum-espresso.org", 
     in publications or presentations arising from this work. More details at
     http://www.quantum-espresso.org/quote

     Parallel version (MPI & OpenMP), running on      56 processor cores
     Number of MPI processes:                 8
     Threads/MPI process:                     7

     MPI processes distributed on     1 nodes
     488357 MiB available memory on the printing compute node when the environment starts

     Reading input from aiida.in

     Current dimensions of program PWSCF are:
     Max number of different atomic species (ntypx) = 10
     Max number of k-points (npk) =  40000
     Max angular momentum in pseudopotentials (lmaxx) =  4
     file Yb.paw.z_24.atompaw.wentzcovitch.v1.2.upf: wavefunction(s)  6S 0P 5D 0D 4F 0F renormalized
     Message from routine setup:
     using ibrav=0 with symmetry is DISCOURAGED, use correct ibrav instead

     K-points division:     npool     =       8
     Subspace diagonalization in iterative solution of the eigenvalue problem:
     a serial algorithm will be used


     G-vector sticks info
     --------------------
     sticks:   dense  smooth     PW     G-vecs:    dense   smooth      PW
     Sum        1953     973    323                52933    18721    3503

     Using Slab Decomposition



     bravais-lattice index     =            0
     lattice parameter (alat)  =      10.5110  a.u.
     unit-cell volume          =     547.6519 (a.u.)^3
     number of atoms/cell      =            4
     number of atomic types    =            2
     number of electrons       =        56.00
     number of Kohn-Sham states=           34
     kinetic-energy cutoff     =      40.0000  Ry
     charge density cutoff     =     320.0000  Ry
     scf convergence threshold =      4.0E-06
     mixing beta               =       0.4000
     number of iterations used =            8  plain     mixing
     energy convergence thresh.=      4.0E-03
     force convergence thresh. =      5.0E-03
     press convergence thresh. =      2.0E+00
     Exchange-correlation= SLA PW PSX PSC
                           (   1   4  10   8   0   0   0)
     nstep                     =           50


     celldm(1)=  10.511014  celldm(2)=   0.000000  celldm(3)=   0.000000
     celldm(4)=   0.000000  celldm(5)=   0.000000  celldm(6)=   0.000000

     crystal axes: (cart. coord. in units of alat)
               a(1) = (   0.375572  -0.926793   0.000000 )  
               a(2) = (   0.375572   0.926793   0.000000 )  
               a(3) = (   0.000000   0.000000   0.677431 )  

     reciprocal axes: (cart. coord. in units 2 pi/alat)
               b(1) = (  1.331304 -0.539495  0.000000 )  
               b(2) = (  1.331304  0.539495 -0.000000 )  
               b(3) = ( -0.000000  0.000000  1.476165 )  


     PseudoPot. # 1 for Si read from file:
     ./pseudo/Si.pbesol-n-rrkjus_psl.1.0.0.UPF
     MD5 check sum: c4212819de858c94c3a1644338846ac9
     Pseudo is Ultrasoft + core correction, Zval =  4.0
     Generated using "atomic" code by A. Dal Corso  v.6.0 svn rev. 13079
     Using radial grid of 1141 points,  6 beta functions with: 
                l(1) =   0
                l(2) =   0
                l(3) =   1
                l(4) =   1
                l(5) =   2
                l(6) =   2
     Q(r) pseudized with 0 coefficients 


     PseudoPot. # 2 for Yb read from file:
     ./pseudo/Yb.paw.z_24.atompaw.wentzcovitch.v1.2.upf
     MD5 check sum: 99544937f199e08ce7c7ae457e6681d8
     Pseudo is Projector augmented-wave + core cor, Zval = 24.0
     Generated using ATOMPAW code
     Shape of augmentation charge: BESSEL
     Using radial grid of 1117 points,  8 beta functions with: 
                l(1) =   0
                l(2) =   0
                l(3) =   1
                l(4) =   1
                l(5) =   2
                l(6) =   2
                l(7) =   3
                l(8) =   3
     Q(r) pseudized with 0 coefficients 


     atomic species   valence    mass     pseudopotential
        Si             4.00    28.08550     Si( 1.00)
        Yb            24.00   173.05400     Yb( 1.00)

     Starting magnetic structure 
     atomic species   magnetization
        Si           0.100
        Yb           0.100

      8 Sym. Ops., with inversion, found ( 4 have fractional translation)


                                    s                        frac. trans.

      isym =  1     identity                                     

 cryst.   s( 1) = (     1          0          0      )
                  (     0          1          0      )
                  (     0          0          1      )

 cart.    s( 1) = (  1.0000000  0.0000000  0.0000000 )
                  (  0.0000000  1.0000000  0.0000000 )
                  (  0.0000000  0.0000000  1.0000000 )


      isym =  2     180 deg rotation - cart. axis [0,0,1]        

 cryst.   s( 2) = (    -1          0          0      )    f =( -0.0000000 )
                  (     0         -1          0      )       (  0.0000000 )
                  (     0          0          1      )       ( -0.5000000 )

 cart.    s( 2) = ( -1.0000000  0.0000000  0.0000000 )    f =(  0.0000000 )
                  (  0.0000000 -1.0000000  0.0000000 )       (  0.0000000 )
                  (  0.0000000  0.0000000  1.0000000 )       ( -0.3387156 )


      isym =  3     180 deg rotation - cart. axis [0,1,0]        

 cryst.   s( 3) = (     0         -1          0      )    f =(  0.0000000 )
                  (    -1          0          0      )       (  0.0000000 )
                  (     0          0         -1      )       ( -0.5000000 )

 cart.    s( 3) = ( -1.0000000  0.0000000  0.0000000 )    f =(  0.0000000 )
                  (  0.0000000  1.0000000  0.0000000 )       (  0.0000000 )
                  (  0.0000000  0.0000000 -1.0000000 )       ( -0.3387156 )


      isym =  4     180 deg rotation - cart. axis [1,0,0]        

 cryst.   s( 4) = (     0          1          0      )
                  (     1          0          0      )
                  (     0          0         -1      )

 cart.    s( 4) = (  1.0000000  0.0000000  0.0000000 )
                  (  0.0000000 -1.0000000  0.0000000 )
                  (  0.0000000  0.0000000 -1.0000000 )


      isym =  5     inversion                                    

 cryst.   s( 5) = (    -1          0          0      )
                  (     0         -1          0      )
                  (     0          0         -1      )

 cart.    s( 5) = ( -1.0000000  0.0000000  0.0000000 )
                  (  0.0000000 -1.0000000  0.0000000 )
                  (  0.0000000  0.0000000 -1.0000000 )


      isym =  6     inv. 180 deg rotation - cart. axis [0,0,1]   

 cryst.   s( 6) = (     1          0          0      )    f =(  0.0000000 )
                  (     0          1          0      )       (  0.0000000 )
                  (     0          0         -1      )       ( -0.5000000 )

 cart.    s( 6) = (  1.0000000  0.0000000  0.0000000 )    f =(  0.0000000 )
                  (  0.0000000  1.0000000  0.0000000 )       (  0.0000000 )
                  (  0.0000000  0.0000000 -1.0000000 )       ( -0.3387156 )


      isym =  7     inv. 180 deg rotation - cart. axis [0,1,0]   

 cryst.   s( 7) = (     0          1          0      )    f =( -0.0000000 )
                  (     1          0          0      )       (  0.0000000 )
                  (     0          0          1      )       ( -0.5000000 )

 cart.    s( 7) = (  1.0000000  0.0000000  0.0000000 )    f =( -0.0000000 )
                  (  0.0000000 -1.0000000  0.0000000 )       (  0.0000000 )
                  (  0.0000000  0.0000000  1.0000000 )       ( -0.3387156 )


      isym =  8     inv. 180 deg rotation - cart. axis [1,0,0]   

 cryst.   s( 8) = (     0         -1          0      )
                  (    -1          0          0      )
                  (     0          0          1      )

 cart.    s( 8) = ( -1.0000000  0.0000000  0.0000000 )
                  (  0.0000000  1.0000000  0.0000000 )
                  (  0.0000000  0.0000000  1.0000000 )


   Cartesian axes

     site n.     atom                  positions (alat units)
         1           Yb  tau(   1) = (  -0.0000000   0.2576486   0.1693578  )
         2           Yb  tau(   2) = (   0.3755716   0.6691448   0.5080734  )
         3           Si  tau(   3) = (  -0.0000000   0.7877744   0.1693578  )
         4           Si  tau(   4) = (   0.3755716   0.1390190   0.5080734  )

   Crystallographic axes

     site n.     atom                  positions (cryst. coord.)
         1           Yb  tau(   1) = ( -0.1390000  0.1390000  0.2500000  )
         2           Yb  tau(   2) = (  0.1390000  0.8610000  0.7500000  )
         3           Si  tau(   3) = ( -0.4250000  0.4250000  0.2500000  )
         4           Si  tau(   4) = (  0.4250000  0.5750000  0.7500000  )

     number of k points=    52  Marzari-Vanderbilt smearing, width (Ry)=  0.0275
                       cart. coord. in units 2pi/alat
        k(    1) = (   0.0000000   0.0000000   0.0000000), wk =   0.0046296
        k(    2) = (   0.0000000   0.0000000   0.2460275), wk =   0.0092593
        k(    3) = (   0.0000000   0.0000000   0.4920549), wk =   0.0092593
        k(    4) = (   0.0000000   0.0000000  -0.7380824), wk =   0.0046296
        k(    5) = (   0.2218840   0.0899158   0.0000000), wk =   0.0185185
        k(    6) = (   0.2218840   0.0899158   0.2460275), wk =   0.0370370
        k(    7) = (   0.2218840   0.0899158   0.4920549), wk =   0.0370370
        k(    8) = (   0.2218840   0.0899158  -0.7380824), wk =   0.0185185
        k(    9) = (   0.4437681   0.1798315   0.0000000), wk =   0.0185185
        k(   10) = (   0.4437681   0.1798315   0.2460275), wk =   0.0370370
        k(   11) = (   0.4437681   0.1798315   0.4920549), wk =   0.0370370
        k(   12) = (   0.4437681   0.1798315  -0.7380824), wk =   0.0185185
        k(   13) = (  -0.6656521  -0.2697473   0.0000000), wk =   0.0092593
        k(   14) = (  -0.6656521  -0.2697473   0.2460275), wk =   0.0185185
        k(   15) = (  -0.6656521  -0.2697473   0.4920549), wk =   0.0185185
        k(   16) = (  -0.6656521  -0.2697473  -0.7380824), wk =   0.0092593
        k(   17) = (   0.4437681   0.0000000   0.0000000), wk =   0.0092593
        k(   18) = (   0.4437681   0.0000000   0.2460275), wk =   0.0185185
        k(   19) = (   0.4437681   0.0000000   0.4920549), wk =   0.0185185
        k(   20) = (   0.4437681   0.0000000  -0.7380824), wk =   0.0092593
        k(   21) = (   0.6656521   0.0899158   0.0000000), wk =   0.0185185
        k(   22) = (   0.6656521   0.0899158   0.2460275), wk =   0.0370370
        k(   23) = (   0.6656521   0.0899158   0.4920549), wk =   0.0370370
        k(   24) = (   0.6656521   0.0899158  -0.7380824), wk =   0.0185185
        k(   25) = (  -0.4437681  -0.3596630   0.0000000), wk =   0.0185185
        k(   26) = (  -0.4437681  -0.3596630   0.2460275), wk =   0.0370370
        k(   27) = (  -0.4437681  -0.3596630   0.4920549), wk =   0.0370370
        k(   28) = (  -0.4437681  -0.3596630  -0.7380824), wk =   0.0185185
        k(   29) = (  -0.2218840  -0.2697473   0.0000000), wk =   0.0185185
        k(   30) = (  -0.2218840  -0.2697473   0.2460275), wk =   0.0370370
        k(   31) = (  -0.2218840  -0.2697473   0.4920549), wk =   0.0370370
        k(   32) = (  -0.2218840  -0.2697473  -0.7380824), wk =   0.0185185
        k(   33) = (   0.0000000  -0.1798315   0.0000000), wk =   0.0092593
        k(   34) = (   0.0000000  -0.1798315   0.2460275), wk =   0.0185185
        k(   35) = (   0.0000000  -0.1798315   0.4920549), wk =   0.0185185
        k(   36) = (   0.0000000  -0.1798315  -0.7380824), wk =   0.0092593
        k(   37) = (   0.8875361   0.0000000   0.0000000), wk =   0.0092593
        k(   38) = (   0.8875361   0.0000000   0.2460275), wk =   0.0185185
        k(   39) = (   0.8875361   0.0000000   0.4920549), wk =   0.0185185
        k(   40) = (   0.8875361   0.0000000  -0.7380824), wk =   0.0092593
        k(   41) = (  -0.2218840  -0.4495788   0.0000000), wk =   0.0185185
        k(   42) = (  -0.2218840  -0.4495788   0.2460275), wk =   0.0370370
        k(   43) = (  -0.2218840  -0.4495788   0.4920549), wk =   0.0370370
        k(   44) = (  -0.2218840  -0.4495788  -0.7380824), wk =   0.0185185
        k(   45) = (  -0.0000000  -0.3596630   0.0000000), wk =   0.0092593
        k(   46) = (  -0.0000000  -0.3596630   0.2460275), wk =   0.0185185
        k(   47) = (  -0.0000000  -0.3596630   0.4920549), wk =   0.0185185
        k(   48) = (  -0.0000000  -0.3596630  -0.7380824), wk =   0.0092593
        k(   49) = (  -1.3313042   0.0000000   0.0000000), wk =   0.0046296
        k(   50) = (  -1.3313042   0.0000000   0.2460275), wk =   0.0092593
        k(   51) = (  -1.3313042   0.0000000   0.4920549), wk =   0.0092593
        k(   52) = (  -1.3313042   0.0000000  -0.7380824), wk =   0.0046296

                       cryst. coord.
        k(    1) = (   0.0000000   0.0000000   0.0000000), wk =   0.0046296
        k(    2) = (   0.0000000   0.0000000   0.1666667), wk =   0.0092593
        k(    3) = (   0.0000000   0.0000000   0.3333333), wk =   0.0092593
        k(    4) = (   0.0000000   0.0000000  -0.5000000), wk =   0.0046296
        k(    5) = (   0.0000000   0.1666667   0.0000000), wk =   0.0185185
        k(    6) = (   0.0000000   0.1666667   0.1666667), wk =   0.0370370
        k(    7) = (   0.0000000   0.1666667   0.3333333), wk =   0.0370370
        k(    8) = (   0.0000000   0.1666667  -0.5000000), wk =   0.0185185
        k(    9) = (   0.0000000   0.3333333   0.0000000), wk =   0.0185185
        k(   10) = (   0.0000000   0.3333333   0.1666667), wk =   0.0370370
        k(   11) = (   0.0000000   0.3333333   0.3333333), wk =   0.0370370
        k(   12) = (   0.0000000   0.3333333  -0.5000000), wk =   0.0185185
        k(   13) = (  -0.0000000  -0.5000000   0.0000000), wk =   0.0092593
        k(   14) = (  -0.0000000  -0.5000000   0.1666667), wk =   0.0185185
        k(   15) = (  -0.0000000  -0.5000000   0.3333333), wk =   0.0185185
        k(   16) = (  -0.0000000  -0.5000000  -0.5000000), wk =   0.0092593
        k(   17) = (   0.1666667   0.1666667   0.0000000), wk =   0.0092593
        k(   18) = (   0.1666667   0.1666667   0.1666667), wk =   0.0185185
        k(   19) = (   0.1666667   0.1666667   0.3333333), wk =   0.0185185
        k(   20) = (   0.1666667   0.1666667  -0.5000000), wk =   0.0092593
        k(   21) = (   0.1666667   0.3333333   0.0000000), wk =   0.0185185
        k(   22) = (   0.1666667   0.3333333   0.1666667), wk =   0.0370370
        k(   23) = (   0.1666667   0.3333333   0.3333333), wk =   0.0370370
        k(   24) = (   0.1666667   0.3333333  -0.5000000), wk =   0.0185185
        k(   25) = (   0.1666667  -0.5000000   0.0000000), wk =   0.0185185
        k(   26) = (   0.1666667  -0.5000000   0.1666667), wk =   0.0370370
        k(   27) = (   0.1666667  -0.5000000   0.3333333), wk =   0.0370370
        k(   28) = (   0.1666667  -0.5000000  -0.5000000), wk =   0.0185185
        k(   29) = (   0.1666667  -0.3333333   0.0000000), wk =   0.0185185
        k(   30) = (   0.1666667  -0.3333333   0.1666667), wk =   0.0370370
        k(   31) = (   0.1666667  -0.3333333   0.3333333), wk =   0.0370370
        k(   32) = (   0.1666667  -0.3333333  -0.5000000), wk =   0.0185185
        k(   33) = (   0.1666667  -0.1666667   0.0000000), wk =   0.0092593
        k(   34) = (   0.1666667  -0.1666667   0.1666667), wk =   0.0185185
        k(   35) = (   0.1666667  -0.1666667   0.3333333), wk =   0.0185185
        k(   36) = (   0.1666667  -0.1666667  -0.5000000), wk =   0.0092593
        k(   37) = (   0.3333333   0.3333333   0.0000000), wk =   0.0092593
        k(   38) = (   0.3333333   0.3333333   0.1666667), wk =   0.0185185
        k(   39) = (   0.3333333   0.3333333   0.3333333), wk =   0.0185185
        k(   40) = (   0.3333333   0.3333333  -0.5000000), wk =   0.0092593
        k(   41) = (   0.3333333  -0.5000000   0.0000000), wk =   0.0185185
        k(   42) = (   0.3333333  -0.5000000   0.1666667), wk =   0.0370370
        k(   43) = (   0.3333333  -0.5000000   0.3333333), wk =   0.0370370
        k(   44) = (   0.3333333  -0.5000000  -0.5000000), wk =   0.0185185
        k(   45) = (   0.3333333  -0.3333333   0.0000000), wk =   0.0092593
        k(   46) = (   0.3333333  -0.3333333   0.1666667), wk =   0.0185185
        k(   47) = (   0.3333333  -0.3333333   0.3333333), wk =   0.0185185
        k(   48) = (   0.3333333  -0.3333333  -0.5000000), wk =   0.0092593
        k(   49) = (  -0.5000000  -0.5000000   0.0000000), wk =   0.0046296
        k(   50) = (  -0.5000000  -0.5000000   0.1666667), wk =   0.0092593
        k(   51) = (  -0.5000000  -0.5000000   0.3333333), wk =   0.0092593
        k(   52) = (  -0.5000000  -0.5000000  -0.5000000), wk =   0.0046296

     Dense  grid:    52933 G-vectors     FFT dimensions: (  60,  60,  48)

     Smooth grid:    18721 G-vectors     FFT dimensions: (  45,  45,  30)

     Dynamical RAM for                 wfc:       1.21 MB

     Dynamical RAM for     wfc (w. buffer):      17.00 MB

     Dynamical RAM for           str. fact:       1.62 MB

     Dynamical RAM for           local pot:       0.00 MB

     Dynamical RAM for          nlocal pot:       3.57 MB

     Dynamical RAM for                qrad:      13.79 MB

     Dynamical RAM for          rho,v,vnew:      12.76 MB

     Dynamical RAM for               rhoin:       4.25 MB

     Dynamical RAM for            rho*nmix:      25.85 MB

     Dynamical RAM for           G-vectors:       3.17 MB

     Dynamical RAM for          h,s,v(r/c):       0.21 MB

     Dynamical RAM for          <psi|beta>:       0.05 MB

     Dynamical RAM for                 psi:       2.43 MB

     Dynamical RAM for                hpsi:       2.43 MB

     Dynamical RAM for                spsi:       2.43 MB

     Dynamical RAM for      wfcinit/wfcrot:       5.26 MB

     Dynamical RAM for           addusdens:      57.74 MB

     Dynamical RAM for          addusforce:      57.29 MB

     Dynamical RAM for         addusstress:      59.61 MB

     Estimated static dynamical RAM per process >      66.48 MB

     Estimated max dynamical RAM per process >     151.94 MB

     Estimated total dynamical RAM >       1.01 GB
     Generating pointlists ...
     new r_m :   0.1808 (alat units)  1.9000 (a.u.) for type    1
     new r_m :   0.2143 (alat units)  2.2523 (a.u.) for type    2

     Initial potential from superposition of free atoms

     starting charge      55.9917, renormalised to      56.0000
     Starting wfcs are   72 randomized atomic wfcs
 
 ==========================================
 * initializing SIRIUS simulation context *
 ==========================================
[info] SIRIUS version : 7.5.1
[info] git hash       : 716da3d7b0f886135eb7b6a6d013868eb9674ffc
[info] git branch     : heads/sirius-md
[info] build time     : 2024-03-12 20:37:36
[info] start time     : Tue, 14 May 2024 01:58:37
[info] 
[info] number of MPI ranks           : 8
[info] MPI grid                      : 1 1
[info] maximum number of OMP threads : 7
[info] number of MPI ranks per node  : 8
[info] page size (Kb)                : 4
[info] number of pages               : 131909182
[info] available memory (GB)         : 503
[info] 
[fft] FFT context for density and potential
[fft] =====================================
[fft]   comm size                             : 8
[fft]   plane wave cutoff                     : 17.8885
[fft]   grid size                             : 60 60 48   total : 172800
[fft]   grid limits                           : -29 30   -29 30   -23 24
[fft]   number of G-vectors within the cutoff : 26467
[fft]   local number of G-vectors             : 3307
[fft]   number of G-shells                    : 7188
[fft] 
[fft] FFT context for coarse grid
[fft] =====================================
[fft]   comm size                             : 1
[fft]   plane wave cutoff                     : 12.6491
[fft]   grid size                             : 45 45 32   total : 64800
[fft]   grid limits                           : -22 22   -22 22   -15 16
[fft]   number of G-vectors within the cutoff : 9361
[fft]   local number of G-vectors             : 1171
[fft]   number of G-shells                    : 2628
[fft] 
[fft] 
[unit cell] lattice vectors
[unit cell]   a1 :       3.9476378743     -9.7415381724      0.0000000000
[unit cell]   a2 :       3.9476378743      9.7415381724      0.0000000000
[unit cell]   a3 :       0.0000000000      0.0000000000      7.1204880376
[unit cell] reciprocal lattice vectors
[unit cell]   b1 :       0.7958158153     -0.3224945176      0.0000000000
[unit cell]   b2 :       0.7958158153      0.3224945176     -0.0000000000
[unit cell]   b3 :      -0.0000000000      0.0000000000      0.8824093621
[unit cell] 
[unit cell] unit cell volume :       547.65190224 [a.u.^3]
[unit cell] 1/sqrt(omega)    :         0.04273146
[unit cell] MT volume        :         0.00000000 ( 0.00%)
[unit cell] IT volume        :       547.65190224 (100.00%)
[unit cell] 
[unit cell] number of atom types : 2
[unit cell] type id : 0 symbol :    mt_radius : 100.578918 num_atoms : 2
[unit cell] type id : 1 symbol :    mt_radius :  14.902139 num_atoms : 2
[unit cell] total number of atoms : 4
[unit cell] number of symmetry classes : 2
[unit cell] number of PAW atoms : 2
[unit cell] PAW atoms : 0 1
[unit cell] 
[unit cell] minimum bond length:     4.606096
[unit cell] 
[unit cell] total number of pseudo wave-functions: 72
[unit cell] 
[sym] space group number   : 63
[sym] international symbol : Cmcm
[sym] Hall symbol          : -C 2c 2
[sym] space group transformation matrix : 
[sym]   0.5000  0.5000  0.0000
[sym]  -0.5000  0.5000  0.0000
[sym]   0.0000  0.0000  1.0000
[sym] space group origin shift : 
[sym]  -0.0000  0.0000  0.5000
[sym] number of space group operations  : 8
[sym] number of magnetic group operations : 8
[sym] metric tensor error: 0.0000e+00
[sym] rotation matrix error: 4.4409e-16
[atom type] label          : Si
[atom type] --------------------------------------------------------------------------------
[atom type] symbol         : 
[atom type] name           : 
[atom type] zn             : 4
[atom type] mass           : 28.0855
[atom type] mt_radius      : 100.579
[atom type] num_mt_points  : 1141
[atom type] grid_origin    : 6.51344e-05
[atom type] grid_name      : external
[atom type] 
[atom type] number of core electrons    : 0
[atom type] number of valence electrons : 4
[atom type] 
[atom type] total number of radial functions : 6
[atom type] lmax of radial functions         : 2
[atom type] max. number of radial functions  : 2
[atom type] total number of basis functions  : 18
[atom type] number of aw basis functions     : 18
[atom type] number of lo basis functions     : 0
[atom type] lmax_apw                         : -1
[atom type] lmax of beta-projectors          : 2
[atom type] number of ps wavefunctions       : 2
[atom type] charge augmentation              : true
[atom type] vloc is set                      : true
[atom type] ps_rho_core is set               : true
[atom type] ps_rho_total is set              : true
[atom type] Hubbard correction               : false
[atom type] spin-orbit coupling              : false
[atom type] atomic wave-functions            : {l: 0}, {l: 1}
[atom type] 
[atom type] label          : Yb
[atom type] --------------------------------------------------------------------------------
[atom type] symbol         : 
[atom type] name           : 
[atom type] zn             : 24
[atom type] mass           : 173.054
[atom type] mt_radius      : 14.9021
[atom type] num_mt_points  : 1117
[atom type] grid_origin    : 1.30269e-05
[atom type] grid_name      : external
[atom type] 
[atom type] number of core electrons    : 0
[atom type] number of valence electrons : 24
[atom type] 
[atom type] total number of radial functions : 8
[atom type] lmax of radial functions         : 3
[atom type] max. number of radial functions  : 2
[atom type] total number of basis functions  : 32
[atom type] number of aw basis functions     : 32
[atom type] number of lo basis functions     : 0
[atom type] lmax_apw                         : -1
[atom type] lmax of beta-projectors          : 3
[atom type] number of ps wavefunctions       : 8
[atom type] charge augmentation              : true
[atom type] vloc is set                      : true
[atom type] ps_rho_core is set               : true
[atom type] ps_rho_total is set              : true
[atom type] Hubbard correction               : false
[atom type] spin-orbit coupling              : false
[atom type] atomic wave-functions            : {l: 0}, {l: 0}, {l: 1}, {l: 1}, {l: 2}, {l: 2}, {l: 3}, {l: 3}
[atom type] 
[info] total nuclear charge               : 56
[info] number of core electrons           : 0
[info] number of valence electrons        : 56
[info] total number of electrons          : 56
[info] extra charge                       : 0
[info] total number of aw basis functions : 100
[info] total number of lo basis functions : 0
[info] number of first-variational states : -1
[info] number of bands                    : 34
[info] number of spins                    : 2
[info] number of magnetic dimensions      : 1
[info] number of spinor components        : 1
[info] number of spinors per band index   : 2
[info] lmax_apw                           : -1
[info] lmax_rho                           : -1
[info] lmax_pot                           : -1
[info] lmax_rf                            : 3
[info] smearing type                      : cold
[info] smearing width                     : 0.01375
[info] cyclic block size                  : 32
[info] |G+k| cutoff                       : 6.32456
[info] symmetry                           : true
[info] so_correction                      : false
[info] valence relativity                 : zora
[info] core relativity                    : Dirac
[info] standard eigen-value solver        : MAGMA
[info] generalized eigen-value solver     : LAPACK
[info] processing unit                    : GPU
[info] number of devices                  : 1
[info]   name                             : 
[info]   major                            : 9
[info]   minor                            : 0
[info]   clockRate                        : 1700000 kHz
[info]   memoryClockRate                  : 1600000 kHz
[info]   memoryBusWidth                   : 4096 bits
[info]   sharedMemPerBlock                : 64 kB
[info]   totalConstMem                    : 2097151 kB
[info]   totalGlobalMem                   : 67092480 kB
[info]   available memory                 : 66299484 kB
[info]   l2CacheSize                      : 8192 kB
[info]   warpSize                         : 64
[info]   regsPerBlock                     : 65536
[info]   canMapHostMemory                 : 1
[info]   concurrentKernels                : 1
[info]   maxGridSize                      : 2147483647 2147483647 2147483647
[info]   maxThreadsDim                    : 1024 1024 1024
[info]   maxThreadsPerBlock               : 1024
[info]   maxThreadsPerMultiProcessor      : 2048
[info]   multiProcessorCount              : 110
[info]   pciBusID                         : 193
[info]   pciDeviceID                      : 0
[info]   pciDomainID                      : 0
[info] 
[info] iterative solver                   : davidson
[info] number of steps                    : 20
[info] subspace size                      : 2
[info] early restart ratio                : 0.5
[info] precision_wf                       : fp64
[info] precision_hs                       : fp64
[info] mixer                              : anderson
[info] mixing beta                        : 0.4
[info] max_history                        : 8
[info] use_hartree                        : true
[info] 
[info] spglib version: 2.0.2
[info] HDF5 version: 1.14.0
[info] Libxc version: 6.1.0
[info] 
[info] XC functionals
[info] ==============
[info] 1) XC_GGA_X_PBE_SOL : Perdew, Burke & Ernzerhof SOL
[info] J. P. Perdew, A. Ruzsinszky, G. I. Csonka, O. A. Vydrov, G. E. Scuseria, L. A. Constantin, X. Zhou, and K. Burke.,  Phys. Rev. Lett. 100, 136406 (2008) (10.1103/PhysRevLett.100.136406)
[info] 
[info] 2) XC_GGA_C_PBE_SOL : Perdew, Burke & Ernzerhof SOL
[info] J. P. Perdew, A. Ruzsinszky, G. I. Csonka, O. A. Vydrov, G. E. Scuseria, L. A. Constantin, X. Zhou, and K. Burke.,  Phys. Rev. Lett. 100, 136406 (2008) (10.1103/PhysRevLett.100.136406)
[info] 
[info] 
[info] memory consumption
[info] ==================
[info] approximate number of G+k vectors        : 2339
[info] approximate number of G vectors          : 26469
[info] approximate number of coarse G vectors   : 9358
[info] approximate size of wave-functions for each k-point: 2 Mb,  2 Mb/rank
[info] approximate memory consumption of Davidson solver: 14 Mb/rank
[info] approximate memory consumption of charge density augmentation: 80 Mb/rank
[info] approximate memory consumption of FFT transforms: 1 Mb/rank
[print_info] 
[print_info] total number of k-points : 52
[print_info] --------------------------------------------------------------------------------
[print_info] 
[print_info]   ik                vk                    weight  num_gkvec
[print_info] --------------------------------------------------------------------------------
[print_info]    0   0.0000   0.0000   0.0000         0.004630       2339
[print_info]    1   0.0000   0.0000   0.1667         0.009259       2345
[print_info]    2   0.0000   0.0000   0.3333         0.009259       2348
[print_info]    3   0.0000   0.0000  -0.5000         0.004630       2342
[print_info]    4   0.0000   0.1667   0.0000         0.018519       2337
[print_info]    5   0.0000   0.1667   0.1667         0.037037       2341
[print_info]    6   0.0000   0.1667   0.3333         0.037037       2341
[print_info]    7   0.0000   0.1667  -0.5000         0.018519       2352
[print_info]    8   0.0000   0.3333   0.0000         0.018519       2341
[print_info]    9   0.0000   0.3333   0.1667         0.037037       2339
[print_info]   10   0.0000   0.3333   0.3333         0.037037       2340
[print_info]   11   0.0000   0.3333  -0.5000         0.018519       2350
[print_info]   12   0.0000  -0.5000   0.0000         0.009259       2354
[print_info]   13   0.0000  -0.5000   0.1667         0.018519       2338
[print_info]   14   0.0000  -0.5000   0.3333         0.018519       2346
[print_info]   15   0.0000  -0.5000  -0.5000         0.009259       2344
[print_info]   16   0.1667   0.1667   0.0000         0.009259       2336
[print_info]   17   0.1667   0.1667   0.1667         0.018519       2340
[print_info]   18   0.1667   0.1667   0.3333         0.018519       2341
[print_info]   19   0.1667   0.1667  -0.5000         0.009259       2340
[print_info]   20   0.1667   0.3333   0.0000         0.018519       2340
[print_info]   21   0.1667   0.3333   0.1667         0.037037       2340
[print_info]   22   0.1667   0.3333   0.3333         0.037037       2348
[print_info]   23   0.1667   0.3333  -0.5000         0.018519       2344
[print_info]   24   0.1667  -0.5000   0.0000         0.018519       2331
[print_info]   25   0.1667  -0.5000   0.1667         0.037037       2336
[print_info]   26   0.1667  -0.5000   0.3333         0.037037       2348
[print_info]   27   0.1667  -0.5000  -0.5000         0.018519       2350
[print_info]   28   0.1667  -0.3333   0.0000         0.018519       2334
[print_info]   29   0.1667  -0.3333   0.1667         0.037037       2333
[print_info]   30   0.1667  -0.3333   0.3333         0.037037       2342
[print_info]   31   0.1667  -0.3333  -0.5000         0.018519       2336
[print_info]   32   0.1667  -0.1667   0.0000         0.009259       2331
[print_info]   33   0.1667  -0.1667   0.1667         0.018519       2332
[print_info]   34   0.1667  -0.1667   0.3333         0.018519       2338
[print_info]   35   0.1667  -0.1667  -0.5000         0.009259       2352
[print_info]   36   0.3333   0.3333   0.0000         0.009259       2332
[print_info]   37   0.3333   0.3333   0.1667         0.018519       2333
[print_info]   38   0.3333   0.3333   0.3333         0.018519       2361
[print_info]   39   0.3333   0.3333  -0.5000         0.009259       2352
[print_info]   40   0.3333  -0.5000   0.0000         0.018519       2338
[print_info]   41   0.3333  -0.5000   0.1667         0.037037       2332
[print_info]   42   0.3333  -0.5000   0.3333         0.037037       2332
[print_info]   43   0.3333  -0.5000  -0.5000         0.018519       2348
[print_info]   44   0.3333  -0.3333   0.0000         0.009259       2344
[print_info]   45   0.3333  -0.3333   0.1667         0.018519       2332
[print_info]   46   0.3333  -0.3333   0.3333         0.018519       2327
[print_info]   47   0.3333  -0.3333  -0.5000         0.009259       2326
[print_info]   48  -0.5000  -0.5000   0.0000         0.004630       2320
[print_info]   49  -0.5000  -0.5000   0.1667         0.009259       2322
[print_info]   50  -0.5000  -0.5000   0.3333         0.009259       2318
[print_info]   51  -0.5000  -0.5000  -0.5000         0.004630       2324

     total cpu time spent up to now is       19.6 secs
 
 ============================
 * running SCF ground state *
 ============================
[find] density_tol               : 4e-06
[find] energy_tol                : 0.0001
[find] iter_solver_tol (initial) : 0.01
[find] iter_solver_tol (target)  : 1e-13
[find] num_dft_iter              : 80
[find] 
[find] converged after 33 SCF iterations!
[find] 
[find] 
[find] Charges and magnetic moments
[find] --------------------------------------------------------------------------------
[find] atom                moment                |moment|
[find] --------------------------------------------------------------------------------
[find]    0 [  0.00000,   0.00000,   0.65305]    0.653048
[find]    1 [  0.00000,   0.00000,   0.65305]    0.653048
[find]    2 [  0.00000,   0.00000,   0.00021]    0.000207
[find]    3 [  0.00000,   0.00000,   0.00021]    0.000207
[find] 
[find] total charge          : 56.000000
[find] total moment          : [  0.00000,   0.00000,   1.28261], magnitude : 1.282613
[find] 
[find] Energy
[find] --------------------------------------------------------------------------------
[find] valence_eval_sum               :       6.96244327
[find] <rho|V^{XC}>                   :     -53.35003196
[find] <rho|E^{XC}>                   :     -44.19158716
[find] <mag|B^{XC}>                   :      -0.01656097
[find] <rho|V^{H}>                    :     350.81417629
[find] one-electron contribution      :    -383.79164537 (Ha),    -767.58329075 (Ry)
[find] hartree contribution           :     175.40708814
[find] xc contribution                :     -44.19158716
[find] ewald contribution             :    -283.01010502
[find] PAW contribution               :    -478.30611632
[find] smearing (-TS)                 :       0.02016636
[find] SCF correction                 :      -0.01080551
[find] Total energy                   :   -1013.88300488 (Ha),   -2027.76600976 (Ry)
[find] 
[find] band gap (eV)                  :       0.00000000
[find] Efermi                         :       0.49074809
[find] 
 
 =============================
 * running NLCG ground state *
 =============================
0              -1013.8830052633218	-5.5193641699352e-05 -1.0000000000000e+00
	 kT * S       : 0.0203156240671
	 Fermi energy : 0.4910348399300
	 KS energy    : -1013.9033208873889
atom              moment                |moment|
--------------------------------------------------------------------------------
   0  [  0.0000,   0.0000,   0.6618]    0.661800
   1  [  0.0000,   0.0000,   0.6618]    0.661800
   2  [  0.0000,   0.0000,   0.0003]    0.000277
   3  [  0.0000,   0.0000,   0.0003]    0.000277

1              -1013.8830093509050	-1.2195604150719e-06 -1.0000000000000e+00
	 kT * S       : 0.0203124314080
	 Fermi energy : 0.4909531379079
	 KS energy    : -1013.9033217823130
atom              moment                |moment|
--------------------------------------------------------------------------------
   0  [  0.0000,   0.0000,   0.6584]    0.658394
   1  [  0.0000,   0.0000,   0.6584]    0.658394
   2  [  0.0000,   0.0000,   0.0003]    0.000280
   3  [  0.0000,   0.0000,   0.0003]    0.000280

kT * S   : 0.02031243140799
F        : -1013.883009351
KS-energy: -1013.903321782
NLCG SUCCESS

!    total energy              =   -2027.76562084 Ry
     estimated scf accuracy    <          0.0E+00 Ry
     smearing contrib. (-TS)   =       0.04102272 Ry
     internal energy E=F+TS    =   -2027.80664356 Ry

     The total energy is F=E-TS. E is the sum of the following terms:
     one-electron contribution =    -767.61612468 Ry
     hartree contribution      =     350.82661716 Ry
     xc contribution           =     -88.38461561 Ry
     ewald contribution        =    -566.02021004 Ry
     one-center paw contrib.   =    -956.61231039 Ry
      -> PAW hartree energy AE =       0.00000000 Ry
      -> PAW hartree energy PS =       0.00000000 Ry
      -> PAW xc energy AE      =       0.00000000 Ry
      -> PAW xc energy PS      =       0.00000000 Ry
      -> total E_H with PAW    =     350.82661716 Ry
      -> total E_XC with PAW   =     -88.38461561 Ry
 
     Band energy sum           =      13.91536723 Ry

     total magnetization       =     1.30 Bohr mag/cell
     absolute magnetization    =     1.42 Bohr mag/cell

     convergence has been achieved in  32 iterations

 ------ SPIN UP ------------


          k = 0.0000 0.0000 0.0000 (  2339 PWs)   bands (ev):

   -38.3770 -38.3468 -10.7570 -10.5734 -10.5089 -10.5097 -10.3529 -10.3343
     2.7527   7.5893  10.4890  11.2547  11.6564  12.2892  12.3294  12.3898
    12.4499  12.4562  12.4681  12.5075  12.5085  12.5123  12.5450  12.5904
    12.5966  12.6110  12.6405  12.8630  14.2209  14.8714  16.1764  17.0803
    17.2507  17.2799

     occupation numbers 
     1.0000   1.0000   1.0000   1.0000   1.0000   1.0000   1.0000   1.0000
     1.0000   1.0000   1.0000   1.0000   1.0000   1.0030   1.0049   1.0088
     1.0150   1.0154   1.0171   1.0230   1.0235   1.0241   1.0298   1.0396
     1.0417   1.0421   1.0518   1.0795   0.0001   0.0000   0.0000   0.0000
     0.0000   0.0000

          k = 0.0000 0.0000 0.2460 (  2345 PWs)   bands (ev):

   -38.3739 -38.3477 -10.7269 -10.5641 -10.5404 -10.5088 -10.3904 -10.3761
     3.0691   7.6930  10.1627  10.7549  11.2667  12.3147  12.3541  12.3936
    12.4177  12.4389  12.4713  12.5095  12.5101  12.5160  12.5445  12.5584
    12.5791  12.5947  12.6223  13.8931  14.0013  14.0048  15.6725  16.2132
    17.2015  17.9216

     occupation numbers 
     1.0000   1.0000   1.0000   1.0000   1.0000   1.0000   1.0000   1.0000
     1.0000   1.0000   1.0000   1.0000   1.0000   1.0042   1.0061   1.0091
     1.0111   1.0137   1.0174   1.0234   1.0237   1.0248   1.0299   1.0324
     1.0376   1.0407   1.0472   0.0053   0.0014   0.0013   0.0000   0.0000
     0.0000   0.0000

          k = 0.0000 0.0000 0.4921 (  2348 PWs)   bands (ev):

   -38.3662 -38.3511 -10.6478 -10.5948 -10.5423 -10.5102 -10.5073 -10.4420
     3.9743   6.9834   9.5723  11.2898  11.3604  12.1661  12.2344  12.3825
    12.4073  12.4315  12.4820  12.5016  12.5110  12.5109  12.5382  12.5494
    12.5747  12.5894  12.6097  12.8315  12.9888  13.7692  16.2179  16.5480
    17.3830  18.5808

     occupation numbers 
     1.0000   1.0000   1.0000   1.0000   1.0000   1.0000   1.0000   1.0000
     1.0000   1.0000   1.0000   1.0000   1.0000   1.0007   1.0016   1.0080
     1.0103   1.0129   1.0189   1.0223   1.0237   1.0241   1.0286   1.0311
     1.0362   1.0393   1.0440   1.0831   1.0179   0.0205   0.0000   0.0000
     0.0000   0.0000

          k = 0.0000 0.0000-0.7381 (  2342 PWs)   bands (ev):

   -38.3575 -38.3575 -10.5991 -10.5991 -10.5356 -10.5356 -10.5211 -10.5211
     5.3605   5.3605  10.5714  10.5714  11.6775  11.6775  12.3923  12.3923
    12.4330  12.4330  12.4792  12.4792  12.4850  12.4850  12.5431  12.5431
    12.5695  12.5695  12.6406  12.6406  12.8420  12.8420  17.0771  17.0771
    18.0969  18.0969

     occupation numbers 
     1.0000   1.0000   1.0000   1.0000   1.0000   1.0000   1.0000   1.0000
     1.0000   1.0000   1.0000   1.0000   1.0000   1.0000   1.0086   1.0086
     1.0129   1.0129   1.0191   1.0191   1.0194   1.0194   1.0297   1.0297
     1.0353   1.0353   1.0515   1.0515   1.0828   1.0828   0.0000   0.0000
     0.0000   0.0000

          k = 0.2219 0.0899 0.0000 (  2337 PWs)   bands (ev):

   -38.3752 -38.3480 -10.7479 -10.6006 -10.5246 -10.4986 -10.3574 -10.3416
     2.9883   7.7177   9.7242  11.5454  11.6784  12.2011  12.3241  12.3950
    12.4409  12.4548  12.4768  12.4839  12.4998  12.5221  12.5461  12.5596
    12.6014  12.6377  12.6597  12.8385  14.2000  14.8789  15.5835  15.9904
    17.1867  17.8015

     occupation numbers 
     1.0000   1.0000   1.0000   1.0000   1.0000   1.0000   1.0000   1.0000
     1.0000   1.0000   1.0000   1.0000   1.0000   1.0011   1.0046   1.0092
     1.0136   1.0155   1.0183   1.0194   1.0220   1.0259   1.0300   1.0332
     1.0419   1.0511   1.0550   1.0825   0.0001   0.0000   0.0000   0.0000
     0.0000   0.0000

          k = 0.2219 0.0899 0.2460 (  2341 PWs)   bands (ev):

   -38.3723 -38.3487 -10.7212 -10.5958 -10.5320 -10.5192 -10.4073 -10.3628
     3.2812   7.7647   9.8982  10.3309  11.6526  12.2124  12.3783  12.4056
    12.4393  12.4406  12.4664  12.4898  12.5009  12.5216  12.5460  12.5591
    12.5599  12.6070  12.6219  13.0018  14.1108  14.7695  15.7571  16.0432
    17.6044  17.9945

     occupation numbers 
     1.0000   1.0000   1.0000   1.0000   1.0000   1.0000   1.0000   1.0000
     1.0000   1.0000   1.0000   1.0000   1.0000   1.0013   1.0078   1.0102
     1.0134   1.0138   1.0169   1.0203   1.0222   1.0258   1.0301   1.0330
     1.0330   1.0436   1.0470   1.0058   0.0003   0.0000   0.0000   0.0000
     0.0000   0.0000

          k = 0.2219 0.0899 0.4921 (  2341 PWs)   bands (ev):

   -38.3652 -38.3515 -10.6637 -10.6020 -10.5607 -10.5331 -10.4884 -10.4225
     4.1222   6.9621   9.6659  10.7991  11.3932  12.0917  12.3836  12.3965
    12.4222  12.4389  12.4769  12.4914  12.4920  12.5232  12.5368  12.5456
    12.5737  12.5795  12.6325  12.7239  13.0282  13.9288  16.7822  17.0708
    17.2986  17.5330

     occupation numbers 
     1.0000   1.0000   1.0000   1.0000   1.0000   1.0000   1.0000   1.0000
     1.0000   1.0000   1.0000   1.0000   1.0000   1.0002   1.0081   1.0092
     1.0117   1.0136   1.0183   1.0207   1.0208   1.0260   1.0282   1.0303
     1.0359   1.0373   1.0496   1.0714   0.9808   0.0035   0.0000   0.0000
     0.0000   0.0000

          k = 0.2219 0.0899-0.7381 (  2352 PWs)   bands (ev):

   -38.3573 -38.3573 -10.6351 -10.6351 -10.5380 -10.5380 -10.4945 -10.4945
     5.4193   5.4193  10.5272  10.5272  11.5724  11.5724  12.3933  12.3933
    12.4539  12.4539  12.4772  12.4772  12.5046  12.5046  12.5444  12.5444
    12.5649  12.5649  12.6357  12.6357  13.0091  13.0091  16.8695  16.8695
    18.1656  18.1656

     occupation numbers 
     1.0000   1.0000   1.0000   1.0000   1.0000   1.0000   1.0000   1.0000
     1.0000   1.0000   1.0000   1.0000   1.0000   1.0000   1.0089   1.0089
     1.0153   1.0153   1.0187   1.0187   1.0225   1.0225   1.0299   1.0299
     1.0343   1.0343   1.0505   1.0505   1.0024   1.0024   0.0000   0.0000
     0.0000   0.0000

          k = 0.4438 0.1798 0.0000 (  2341 PWs)   bands (ev):

   -38.3712 -38.3510 -10.7370 -10.6595 -10.5338 -10.4743 -10.3734 -10.3598
     3.5085   7.8918   9.1987  11.1209  11.3105  11.9400  12.3435  12.3850
    12.3990  12.4322  12.4836  12.5113  12.5172  12.5288  12.5555  12.5569
    12.5867  12.6263  12.6851  12.7316  14.5976  14.8253  15.5561  16.1009
    16.4808  17.3032

     occupation numbers 
     1.0000   1.0000   1.0000   1.0000   1.0000   1.0000   1.0000   1.0000
     1.0000   1.0000   1.0000   1.0000   1.0000   1.0000   1.0056   1.0084
     1.0096   1.0126   1.0195   1.0238   1.0247   1.0271   1.0322   1.0324
     1.0388   1.0483   1.0623   1.0735   0.0000   0.0000   0.0000   0.0000
     0.0000   0.0000

          k = 0.4438 0.1798 0.2460 (  2339 PWs)   bands (ev):

   -38.3688 -38.3512 -10.7135 -10.6549 -10.5541 -10.4955 -10.4157 -10.3664
     3.7463   7.8361   9.3406  10.4352  11.3284  11.9177  12.3828  12.3849
    12.4216  12.4435  12.4679  12.5056  12.5100  12.5288  12.5452  12.5619
    12.5831  12.6058  12.6164  12.6791  14.0375  14.8666  16.1961  16.4456
    17.1227  17.5981

     occupation numbers 
     1.0000   1.0000   1.0000   1.0000   1.0000   1.0000   1.0000   1.0000
     1.0000   1.0000   1.0000   1.0000   1.0000   1.0000   1.0081   1.0085
     1.0117   1.0139   1.0172   1.0227   1.0237   1.0270   1.0300   1.0335
     1.0382   1.0434   1.0459   1.0613   0.0009   0.0000   0.0000   0.0000
     0.0000   0.0000

          k = 0.4438 0.1798 0.4921 (  2340 PWs)   bands (ev):

   -38.3629 -38.3528 -10.6808 -10.6448 -10.6020 -10.5279 -10.4594 -10.4074
     4.4411   6.9067   9.7399  10.5307  11.1061  11.9491  12.3717  12.4135
    12.4529  12.4588  12.4687  12.4916  12.5074  12.5225  12.5446  12.5451
    12.5685  12.5746  12.6117  12.6257  13.2046  14.1020  16.3758  17.1422
    18.0330  18.1968

     occupation numbers 
     1.0000   1.0000   1.0000   1.0000   1.0000   1.0000   1.0000   1.0000
     1.0000   1.0000   1.0000   1.0000   1.0000   1.0000   1.0074   1.0109
     1.0151   1.0161   1.0171   1.0205   1.0232   1.0256   1.0300   1.0301
     1.0350   1.0363   1.0447   1.0480   0.6997   0.0003   0.0000   0.0000
     0.0000   0.0000

          k = 0.4438 0.1798-0.7381 (  2350 PWs)   bands (ev):

   -38.3568 -38.3568 -10.6769 -10.6769 -10.5597 -10.5597 -10.4544 -10.4544
     5.5432   5.5432  10.4226  10.4226  11.4139  11.4139  12.3890  12.3890
    12.4633  12.4633  12.4838  12.4838  12.5202  12.5202  12.5473  12.5473
    12.5587  12.5587  12.6047  12.6047  13.3385  13.3385  16.6783  16.6783
    18.4100  18.4100

     occupation numbers 
     1.0000   1.0000   1.0000   1.0000   1.0000   1.0000   1.0000   1.0000
     1.0000   1.0000   1.0000   1.0000   1.0000   1.0000   1.0087   1.0087
     1.0167   1.0167   1.0193   1.0193   1.0253   1.0253   1.0304   1.0304
     1.0329   1.0329   1.0430   1.0430   0.4356   0.4356   0.0000   0.0000
     0.0000   0.0000

          k =-0.6657-0.2697 0.0000 (  2354 PWs)   bands (ev):

   -38.3686 -38.3530 -10.7352 -10.6917 -10.5261 -10.4585 -10.3867 -10.3726
     3.8008   7.8990   9.2231  10.5289  11.1886  11.8275  12.3572  12.3683
    12.3854  12.4334  12.4979  12.5213  12.5353  12.5477  12.5525  12.5746
    12.5841  12.5884  12.6800  12.7439  14.5139  14.9659  15.2774  16.7044
    17.0157  17.5209

     occupation numbers 
     1.0000   1.0000   1.0000   1.0000   1.0000   1.0000   1.0000   1.0000
     1.0000   1.0000   1.0000   1.0000   1.0000   1.0000   1.0063   1.0072
     1.0085   1.0128   1.0217   1.0253   1.0283   1.0305   1.0315   1.0366
     1.0386   1.0393   1.0616   1.0755   0.0000   0.0000   0.0000   0.0000
     0.0000   0.0000

          k =-0.6657-0.2697 0.2460 (  2338 PWs)   bands (ev):

   -38.3665 -38.3530 -10.7105 -10.6874 -10.5552 -10.4925 -10.3930 -10.3920
     4.0056   7.8133   9.2243  10.6487  10.8111  11.7848  12.3617  12.3811
    12.4066  12.4441  12.4855  12.5247  12.5351  12.5383  12.5477  12.5718
    12.5746  12.5831  12.6355  12.6473  13.9588  14.7242  16.4115  16.5468
    17.1595  17.6588

     occupation numbers 
     1.0000   1.0000   1.0000   1.0000   1.0000   1.0000   1.0000   1.0000
     1.0000   1.0000   1.0000   1.0000   1.0000   1.0000   1.0067   1.0081
     1.0103   1.0140   1.0197   1.0259   1.0283   1.0288   1.0305   1.0357
     1.0365   1.0381   1.0505   1.0534   0.0024   0.0000   0.0000   0.0000
     0.0000   0.0000

          k =-0.6657-0.2697 0.4921 (  2346 PWs)   bands (ev):

   -38.3615 -38.3537 -10.6930 -10.6587 -10.6186 -10.5345 -10.4216 -10.4216
     4.6161   6.8666   9.7149  10.6022  10.8893  11.8838  12.3547  12.4222
    12.4235  12.4557  12.4743  12.5196  12.5281  12.5367  12.5407  12.5490
    12.5556  12.5747  12.5905  12.6087  13.1625  14.1107  16.5367  17.5123
    17.6649  18.1285

     occupation numbers 
     1.0000   1.0000   1.0000   1.0000   1.0000   1.0000   1.0000   1.0000
     1.0000   1.0000   1.0000   1.0000   1.0000   1.0000   1.0063   1.0116
     1.0120   1.0156   1.0179   1.0252   1.0269   1.0283   1.0292   1.0307
     1.0323   1.0364   1.0396   1.0440   0.7797   0.0003   0.0000   0.0000
     0.0000   0.0000

          k =-0.6657-0.2697-0.7381 (  2344 PWs)   bands (ev):

   -38.3565 -38.3565 -10.6931 -10.6931 -10.5702 -10.5702 -10.4393 -10.4393
     5.6089   5.6089  10.3613  10.3613  11.3455  11.3455  12.3899  12.3899
    12.4598  12.4598  12.4935  12.4935  12.5310  12.5310  12.5372  12.5372
    12.5560  12.5560  12.5862  12.5862  13.4528  13.4528  17.2943  17.2943
    17.8124  17.8124

     occupation numbers 
     1.0000   1.0000   1.0000   1.0000   1.0000   1.0000   1.0000   1.0000
     1.0000   1.0000   1.0000   1.0000   1.0000   1.0000   1.0088   1.0088
     1.0163   1.0163   1.0207   1.0207   1.0273   1.0273   1.0285   1.0285
     1.0323   1.0323   1.0389   1.0389   0.2449   0.2449   0.0000   0.0000
     0.0000   0.0000

          k = 0.4438 0.0000 0.0000 (  2336 PWs)   bands (ev):

   -38.3725 -38.3497 -10.7530 -10.6245 -10.5676 -10.4819 -10.3565 -10.3520
     3.4516   8.3167   8.6594  11.3330  11.4288  11.8458  12.3594  12.3881
    12.3917  12.4312  12.4814  12.5146  12.5207  12.5247  12.5433  12.5471
    12.5901  12.6105  12.6340  12.7470  14.4346  14.9726  15.6377  16.3914
    16.4255  16.9801

     occupation numbers 
     1.0000   1.0000   1.0000   1.0000   1.0000   1.0000   1.0000   1.0000
     1.0000   1.0000   1.0000   1.0000   1.0000   1.0000   1.0066   1.0085
     1.0090   1.0125   1.0192   1.0244   1.0255   1.0262   1.0296   1.0305
     1.0396   1.0441   1.0502   1.0765   0.0000   0.0000   0.0000   0.0000
     0.0000   0.0000

          k = 0.4438 0.0000 0.2460 (  2340 PWs)   bands (ev):

   -38.3699 -38.3501 -10.7236 -10.6271 -10.5763 -10.5034 -10.3907 -10.3774
     3.6908   8.0416   9.0272  10.5070  11.6929  11.7457  12.3852  12.3969
    12.4222  12.4460  12.4664  12.5036  12.5120  12.5233  12.5375  12.5421
    12.5857  12.5910  12.6147  12.6573  14.0998  14.7849  16.0116  16.8298
    17.2144  17.4096

     occupation numbers 
     1.0000   1.0000   1.0000   1.0000   1.0000   1.0000   1.0000   1.0000
     1.0000   1.0000   1.0000   1.0000   1.0000   1.0000   1.0085   1.0093
     1.0118   1.0141   1.0170   1.0225   1.0239   1.0261   1.0286   1.0294
     1.0387   1.0398   1.0454   1.0562   0.0004   0.0000   0.0000   0.0000
     0.0000   0.0000

          k = 0.4438 0.0000 0.4921 (  2341 PWs)   bands (ev):

   -38.3636 -38.3521 -10.6510 -10.6473 -10.6143 -10.5205 -10.4527 -10.4360
     4.3890   6.8914  10.0109  10.2486  11.3484  11.9440  12.3634  12.3959
    12.4555  12.4707  12.4781  12.4814  12.5121  12.5133  12.5398  12.5401
    12.5744  12.5760  12.5932  12.6253  13.3120  14.0158  15.9464  17.4048
    17.9373  18.1026

     occupation numbers 
     1.0000   1.0000   1.0000   1.0000   1.0000   1.0000   1.0000   1.0000
     1.0000   1.0000   1.0000   1.0000   1.0000   1.0000   1.0068   1.0093
     1.0157   1.0173   1.0187   1.0189   1.0239   1.0240   1.0291   1.0292
     1.0364   1.0365   1.0403   1.0479   0.4860   0.0012   0.0000   0.0000
     0.0000   0.0000

          k = 0.4438 0.0000-0.7381 (  2340 PWs)   bands (ev):

   -38.3568 -38.3568 -10.6598 -10.6598 -10.5517 -10.5517 -10.4797 -10.4797
     5.4976   5.4976  10.6744  10.6744  11.2961  11.2961  12.3648  12.3648
    12.4633  12.4633  12.4808  12.4808  12.5200  12.5200  12.5445  12.5445
    12.5644  12.5644  12.5988  12.5988  13.3692  13.3692  16.2956  16.2956
    18.6091  18.6091

     occupation numbers 
     1.0000   1.0000   1.0000   1.0000   1.0000   1.0000   1.0000   1.0000
     1.0000   1.0000   1.0000   1.0000   1.0000   1.0000   1.0069   1.0069
     1.0167   1.0167   1.0189   1.0189   1.0253   1.0253   1.0300   1.0300
     1.0341   1.0341   1.0417   1.0417   0.3793   0.3793   0.0000   0.0000
     0.0000   0.0000

          k = 0.6657 0.0899 0.0000 (  2340 PWs)   bands (ev):

   -38.3686 -38.3530 -10.7578 -10.6462 -10.5564 -10.4585 -10.3793 -10.3726
     3.7981   8.1304   8.7353  10.9315  11.1871  11.7724  12.3467  12.3782
    12.3894  12.4357  12.5195  12.5248  12.5308  12.5516  12.5602  12.5711
    12.5902  12.6011  12.6501  12.6706  14.6238  15.0874  15.3200  16.3012
    16.3310  17.4106

     occupation numbers 
     1.0000   1.0000   1.0000   1.0000   1.0000   1.0000   1.0000   1.0000
     1.0000   1.0000   1.0000   1.0000   1.0000   1.0000   1.0057   1.0080
     1.0088   1.0130   1.0250   1.0262   1.0275   1.0313   1.0333   1.0357
     1.0398   1.0423   1.0542   1.0590   0.0000   0.0000   0.0000   0.0000
     0.0000   0.0000

          k = 0.6657 0.0899 0.2460 (  2340 PWs)   bands (ev):

   -38.3665 -38.3530 -10.7302 -10.6513 -10.5796 -10.4847 -10.3958 -10.3892
     4.0031   7.9534   8.9076  10.5335  11.2743  11.7174  12.3654  12.3749
    12.4136  12.4479  12.5086  12.5213  12.5304  12.5464  12.5514  12.5687
    12.5827  12.5879  12.6105  12.6267  13.9488  14.7159  16.1305  16.5340
    17.1736  17.5440

     occupation numbers 
     1.0000   1.0000   1.0000   1.0000   1.0000   1.0000   1.0000   1.0000
     1.0000   1.0000   1.0000   1.0000   1.0000   1.0000   1.0069   1.0076
     1.0110   1.0144   1.0234   1.0254   1.0273   1.0304   1.0314   1.0351
     1.0379   1.0393   1.0444   1.0484   0.0027   0.0000   0.0000   0.0000
     0.0000   0.0000

          k = 0.6657 0.0899 0.4921 (  2348 PWs)   bands (ev):

   -38.3615 -38.3537 -10.6821 -10.6598 -10.6388 -10.5198 -10.4258 -10.4217
     4.6141   6.8841   9.7043  10.2734  11.2467  11.8845  12.3533  12.4009
    12.4352  12.4745  12.4789  12.5176  12.5233  12.5299  12.5497  12.5545
    12.5587  12.5777  12.5847  12.5968  13.3743  13.9853  16.3164  17.0061
    17.8163  17.9130

     occupation numbers 
     1.0000   1.0000   1.0000   1.0000   1.0000   1.0000   1.0000   1.0000
     1.0000   1.0000   1.0000   1.0000   1.0000   1.0000   1.0062   1.0097
     1.0132   1.0179   1.0188   1.0248   1.0258   1.0272   1.0312   1.0321
     1.0326   1.0369   1.0385   1.0412   0.3696   0.0017   0.0000   0.0000
     0.0000   0.0000

          k = 0.6657 0.0899-0.7381 (  2344 PWs)   bands (ev):

   -38.3565 -38.3565 -10.6924 -10.6924 -10.5717 -10.5717 -10.4385 -10.4385
     5.6098   5.6098  10.3265  10.3265  11.3700  11.3700  12.3744  12.3744
    12.4629  12.4629  12.4907  12.4907  12.5252  12.5252  12.5445  12.5445
    12.5563  12.5563  12.5820  12.5820  13.5951  13.5951  16.9105  16.9105
    17.5923  17.5923

     occupation numbers 
     1.0000   1.0000   1.0000   1.0000   1.0000   1.0000   1.0000   1.0000
     1.0000   1.0000   1.0000   1.0000   1.0000   1.0000   1.0076   1.0076
     1.0167   1.0167   1.0203   1.0203   1.0262   1.0262   1.0301   1.0301
     1.0322   1.0322   1.0379   1.0379   0.0948   0.0948   0.0000   0.0000
     0.0000   0.0000

          k =-0.4438-0.3597 0.0000 (  2331 PWs)   bands (ev):

   -38.3678 -38.3543 -10.7330 -10.6506 -10.5226 -10.4546 -10.4020 -10.3799
     3.6250   7.6197   9.3688  11.1851  11.2642  11.9648  12.3171  12.3805
    12.4149  12.4354  12.4998  12.5061  12.5305  12.5434  12.5662  12.5787
    12.5891  12.6132  12.6802  12.8330  14.6895  14.8353  14.8654  16.3540
    16.6239  16.6909

     occupation numbers 
     1.0000   1.0000   1.0000   1.0000   1.0000   1.0000   1.0000   1.0000
     1.0000   1.0000   1.0000   1.0000   1.0000   1.0000   1.0042   1.0081
     1.0110   1.0131   1.0218   1.0230   1.0272   1.0299   1.0345   1.0372
     1.0393   1.0451   1.0618   1.0831   0.0000   0.0000   0.0000   0.0000
     0.0000   0.0000

          k =-0.4438-0.3597 0.2460 (  2336 PWs)   bands (ev):

   -38.3658 -38.3542 -10.7108 -10.6576 -10.5541 -10.4865 -10.4203 -10.3744
     3.8605   7.6411   9.5796  10.1497  11.3755  11.9617  12.3660  12.3801
    12.4276  12.4461  12.4873  12.5013  12.5221  12.5324  12.5536  12.5769
    12.5940  12.6157  12.6357  12.7476  13.9205  14.8584  15.9822  16.3810
    17.0900  17.3815

     occupation numbers 
     1.0000   1.0000   1.0000   1.0000   1.0000   1.0000   1.0000   1.0000
     1.0000   1.0000   1.0000   1.0000   1.0000   1.0000   1.0069   1.0081
     1.0123   1.0143   1.0200   1.0221   1.0257   1.0277   1.0317   1.0369
     1.0406   1.0458   1.0505   1.0760   0.0039   0.0000   0.0000   0.0000
     0.0000   0.0000

          k =-0.4438-0.3597 0.4921 (  2348 PWs)   bands (ev):

   -38.3612 -38.3545 -10.6942 -10.6680 -10.6155 -10.5235 -10.4318 -10.3901
     4.5499   6.9533   9.4997  10.2125  11.2417  11.9590  12.3793  12.4182
    12.4352  12.4668  12.4723  12.5012  12.5188  12.5225  12.5431  12.5622
    12.5671  12.5851  12.6074  12.6557  13.3045  14.2982  16.0223  17.0855
    17.9901  18.3008

     occupation numbers 
     1.0000   1.0000   1.0000   1.0000   1.0000   1.0000   1.0000   1.0000
     1.0000   1.0000   1.0000   1.0000   1.0000   1.0000   1.0080   1.0112
     1.0132   1.0169   1.0179   1.0222   1.0250   1.0259   1.0295   1.0338
     1.0344   1.0385   1.0435   1.0553   0.5002   0.0000   0.0000   0.0000
     0.0000   0.0000

          k =-0.4438-0.3597-0.7381 (  2350 PWs)   bands (ev):

   -38.3568 -38.3568 -10.7054 -10.7054 -10.5679 -10.5679 -10.4175 -10.4175
     5.6420   5.6420   9.9942   9.9942  11.5603  11.5603  12.4086  12.4086
    12.4655  12.4655  12.4859  12.4859  12.5250  12.5250  12.5408  12.5408
    12.5571  12.5571  12.5861  12.5861  13.5995  13.5995  16.5207  16.5207
    18.5725  18.5725

     occupation numbers 
     1.0000   1.0000   1.0000   1.0000   1.0000   1.0000   1.0000   1.0000
     1.0000   1.0000   1.0000   1.0000   1.0000   1.0000   1.0104   1.0104
     1.0170   1.0170   1.0196   1.0196   1.0263   1.0263   1.0290   1.0290
     1.0326   1.0326   1.0387   1.0387   0.0915   0.0915   0.0000   0.0000
     0.0000   0.0000

          k =-0.2219-0.2697 0.0000 (  2334 PWs)   bands (ev):

   -38.3716 -38.3516 -10.7142 -10.6265 -10.4967 -10.4780 -10.4003 -10.3627
     3.1622   7.2578  10.2892  11.4664  11.4887  12.2075  12.2946  12.4158
    12.4305  12.4355  12.4716  12.4812  12.4927  12.5460  12.5502  12.5600
    12.6255  12.6499  12.7985  12.8131  14.2556  14.8279  15.5777  16.3389
    16.4091  16.6996

     occupation numbers 
     1.0000   1.0000   1.0000   1.0000   1.0000   1.0000   1.0000   1.0000
     1.0000   1.0000   1.0000   1.0000   1.0000   1.0012   1.0033   1.0111
     1.0124   1.0132   1.0178   1.0190   1.0208   1.0304   1.0310   1.0331
     1.0479   1.0540   1.0828   1.0831   0.0000   0.0000   0.0000   0.0000
     0.0000   0.0000

          k =-0.2219-0.2697 0.2460 (  2333 PWs)   bands (ev):

   -38.3692 -38.3518 -10.7060 -10.6204 -10.5147 -10.4963 -10.4521 -10.3544
     3.4456   7.4424   9.8616  10.6348  11.5475  12.2052  12.3654  12.4346
    12.4378  12.4456  12.4588  12.4730  12.4902  12.5346  12.5496  12.5546
    12.6100  12.6136  12.6765  13.0190  13.9496  15.2372  15.3568  15.9032
    17.3294  17.5137

     occupation numbers 
     1.0000   1.0000   1.0000   1.0000   1.0000   1.0000   1.0000   1.0000
     1.0000   1.0000   1.0000   1.0000   1.0000   1.0012   1.0069   1.0131
     1.0133   1.0145   1.0160   1.0177   1.0205   1.0282   1.0307   1.0321
     1.0442   1.0453   1.0606   0.9900   0.0027   0.0000   0.0000   0.0000
     0.0000   0.0000

          k =-0.2219-0.2697 0.4921 (  2342 PWs)   bands (ev):

   -38.3634 -38.3533 -10.7077 -10.6292 -10.5747 -10.5125 -10.4671 -10.3805
     4.2642   7.0369   9.0932  10.9401  11.3041  12.0898  12.4095  12.4312
    12.4484  12.4594  12.4697  12.4754  12.4861  12.5300  12.5383  12.5660
    12.5671  12.5795  12.6838  12.7887  13.0760  14.3007  16.1151  17.0962
    17.1147  17.2709

     occupation numbers 
     1.0000   1.0000   1.0000   1.0000   1.0000   1.0000   1.0000   1.0000
     1.0000   1.0000   1.0000   1.0000   1.0000   1.0002   1.0104   1.0127
     1.0146   1.0160   1.0173   1.0184   1.0198   1.0272   1.0286   1.0342
     1.0348   1.0372   1.0625   1.0816   0.9216   0.0000   0.0000   0.0000
     0.0000   0.0000

          k =-0.2219-0.2697-0.7381 (  2336 PWs)   bands (ev):

   -38.3573 -38.3573 -10.6978 -10.6978 -10.5395 -10.5395 -10.4298 -10.4298
     5.5393   5.5393  10.0135  10.0135  11.6961  11.6961  12.4325  12.4325
    12.4670  12.4670  12.4776  12.4776  12.5106  12.5106  12.5419  12.5419
    12.5751  12.5751  12.6008  12.6008  13.4290  13.4290  16.5281  16.5281
    17.8538  17.8538

     occupation numbers 
     1.0000   1.0000   1.0000   1.0000   1.0000   1.0000   1.0000   1.0000
     1.0000   1.0000   1.0000   1.0000   1.0000   1.0000   1.0128   1.0128
     1.0170   1.0170   1.0188   1.0188   1.0235   1.0235   1.0293   1.0293
     1.0364   1.0364   1.0420   1.0420   0.2791   0.2791   0.0000   0.0000
     0.0000   0.0000

          k = 0.0000-0.1798 0.0000 (  2331 PWs)   bands (ev):

   -38.3750 -38.3488 -10.7351 -10.5921 -10.4974 -10.4909 -10.3800 -10.3462
     2.8635   7.3058  10.8116  11.2993  11.6227  12.2784  12.3064  12.4126
    12.4316  12.4567  12.4720  12.4854  12.4991  12.5394  12.5472  12.5783
    12.5967  12.6308  12.7817  12.8552  13.8636  14.9884  16.1914  16.6340
    17.0208  17.5600

     occupation numbers 
     1.0000   1.0000   1.0000   1.0000   1.0000   1.0000   1.0000   1.0000
     1.0000   1.0000   1.0000   1.0000   1.0000   1.0027   1.0039   1.0109
     1.0125   1.0158   1.0176   1.0198   1.0216   1.0292   1.0303   1.0366
     1.0416   1.0492   1.0803   1.0807   0.0075   0.0000   0.0000   0.0000
     0.0000   0.0000

          k = 0.0000-0.1798 0.2460 (  2332 PWs)   bands (ev):

   -38.3721 -38.3495 -10.7193 -10.5803 -10.5199 -10.4926 -10.4469 -10.3516
     3.1729   7.4978   9.9109  11.2239  11.3195  12.2908  12.3446  12.4160
    12.4328  12.4464  12.4537  12.4900  12.5160  12.5281  12.5426  12.5628
    12.6007  12.6133  12.6439  13.4667  13.9892  14.4672  15.2714  16.5280
    16.5496  17.9704

     occupation numbers 
     1.0000   1.0000   1.0000   1.0000   1.0000   1.0000   1.0000   1.0000
     1.0000   1.0000   1.0000   1.0000   1.0000   1.0032   1.0056   1.0112
     1.0127   1.0146   1.0151   1.0205   1.0245   1.0271   1.0296   1.0333
     1.0425   1.0451   1.0524   0.2253   0.0016   0.0000   0.0000   0.0000
     0.0000   0.0000

          k = 0.0000-0.1798 0.4921 (  2338 PWs)   bands (ev):

   -38.3652 -38.3521 -10.6960 -10.5787 -10.5517 -10.5205 -10.5009 -10.3974
     4.0611   7.0349   9.1693  11.3558  11.4234  12.1595  12.3162  12.4048
    12.4250  12.4413  12.4690  12.4905  12.5072  12.5207  12.5362  12.5649
    12.5811  12.5906  12.7027  12.8493  12.9115  13.9848  16.0575  16.6314
    16.7016  18.4470

     occupation numbers 
     1.0000   1.0000   1.0000   1.0000   1.0000   1.0000   1.0000   1.0000
     1.0000   1.0000   1.0000   1.0000   1.0000   1.0006   1.0040   1.0099
     1.0121   1.0140   1.0171   1.0206   1.0235   1.0254   1.0283   1.0339
     1.0375   1.0400   1.0668   1.0822   1.0666   0.0017   0.0000   0.0000
     0.0000   0.0000

          k = 0.0000-0.1798-0.7381 (  2352 PWs)   bands (ev):

   -38.3575 -38.3575 -10.6662 -10.6662 -10.5213 -10.5213 -10.4681 -10.4681
     5.4304   5.4304  10.2465  10.2465  11.7295  11.7295  12.4351  12.4351
    12.4462  12.4462  12.4804  12.4804  12.4901  12.4901  12.5395  12.5395
    12.5908  12.5908  12.6025  12.6025  13.1345  13.1345  17.1283  17.1283
    17.3516  17.3516

     occupation numbers 
     1.0000   1.0000   1.0000   1.0000   1.0000   1.0000   1.0000   1.0000
     1.0000   1.0000   1.0000   1.0000   1.0000   1.0000   1.0128   1.0128
     1.0144   1.0144   1.0193   1.0193   1.0201   1.0201   1.0289   1.0289
     1.0396   1.0396   1.0426   1.0426   0.8291   0.8291   0.0000   0.0000
     0.0000   0.0000

          k = 0.8875 0.0000 0.0000 (  2332 PWs)   bands (ev):

   -38.3652 -38.3569 -10.7451 -10.5907 -10.5667 -10.4386 -10.4078 -10.3960
     3.6845   7.5703   9.1921  11.2404  11.6641  11.8252  12.3011  12.3783
    12.4280  12.4339  12.4958  12.5176  12.5430  12.5589  12.5641  12.5795
    12.6111  12.6383  12.6668  12.8358  14.4451  14.7780  14.9831  15.8713
    16.5633  16.7665

     occupation numbers 
     1.0000   1.0000   1.0000   1.0000   1.0000   1.0000   1.0000   1.0000
     1.0000   1.0000   1.0000   1.0000   1.0000   1.0000   1.0036   1.0080
     1.0125   1.0128   1.0212   1.0249   1.0298   1.0327   1.0342   1.0373
     1.0444   1.0516   1.0581   1.0829   0.0000   0.0000   0.0000   0.0000
     0.0000   0.0000

          k = 0.8875 0.0000 0.2460 (  2333 PWs)   bands (ev):

   -38.3636 -38.3564 -10.7213 -10.6161 -10.5965 -10.4747 -10.4024 -10.3944
     3.9192   7.6031   9.4490  10.0984  11.6169  11.9417  12.3607  12.3763
    12.4372  12.4451  12.4980  12.5017  12.5256  12.5413  12.5597  12.5685
    12.5932  12.6026  12.6982  12.8164  13.7636  15.0374  15.4443  16.3365
    16.9804  17.4528

     occupation numbers 
     1.0000   1.0000   1.0000   1.0000   1.0000   1.0000   1.0000   1.0000
     1.0000   1.0000   1.0000   1.0000   1.0000   1.0000   1.0065   1.0078
     1.0135   1.0141   1.0216   1.0223   1.0264   1.0291   1.0333   1.0350
     1.0401   1.0428   1.0659   1.0833   0.0216   0.0000   0.0000   0.0000
     0.0000   0.0000

          k = 0.8875 0.0000 0.4921 (  2361 PWs)   bands (ev):

   -38.3599 -38.3558 -10.6896 -10.6824 -10.6349 -10.5147 -10.4054 -10.3966
     4.6068   6.9873   9.4173   9.9255  11.4011  11.9636  12.3771  12.4095
    12.4429  12.4696  12.4780  12.5016  12.5172  12.5304  12.5506  12.5518
    12.5674  12.5810  12.6267  12.6524  13.6332  14.3045  15.5562  16.9866
    17.8163  18.1587

     occupation numbers 
     1.0000   1.0000   1.0000   1.0000   1.0000   1.0000   1.0000   1.0000
     1.0000   1.0000   1.0000   1.0000   1.0000   1.0000   1.0078   1.0104
     1.0142   1.0172   1.0188   1.0223   1.0249   1.0269   1.0314   1.0315
     1.0343   1.0377   1.0485   1.0541   0.0699   0.0000   0.0000   0.0000
     0.0000   0.0000

          k = 0.8875 0.0000-0.7381 (  2352 PWs)   bands (ev):

   -38.3567 -38.3567 -10.7178 -10.7178 -10.5707 -10.5707 -10.4023 -10.4023
     5.6960   5.6960   9.7947   9.7947  11.6136  11.6136  12.4072  12.4072
    12.4674  12.4674  12.4854  12.4854  12.5216  12.5216  12.5460  12.5460
    12.5557  12.5557  12.5712  12.5712  13.9217  13.9217  16.0051  16.0051
    18.6761  18.6761

     occupation numbers 
     1.0000   1.0000   1.0000   1.0000   1.0000   1.0000   1.0000   1.0000
     1.0000   1.0000   1.0000   1.0000   1.0000   1.0000   1.0103   1.0103
     1.0173   1.0173   1.0195   1.0195   1.0257   1.0257   1.0300   1.0300
     1.0323   1.0323   1.0354   1.0354   0.0038   0.0038   0.0000   0.0000
     0.0000   0.0000

          k =-0.2219-0.4496 0.0000 (  2338 PWs)   bands (ev):

   -38.3655 -38.3577 -10.6916 -10.6019 -10.5149 -10.4424 -10.4365 -10.3989
     3.3576   6.8885  10.5167  11.4325  11.5879  12.2131  12.2484  12.4040
    12.4265  12.4582  12.4729  12.4767  12.5107  12.5371  12.5563  12.5636
    12.6155  12.6874  12.7629  13.1951  13.8192  14.9021  15.7636  15.8755
    16.2538  16.4487

     occupation numbers 
     1.0000   1.0000   1.0000   1.0000   1.0000   1.0000   1.0000   1.0000
     1.0000   1.0000   1.0000   1.0000   1.0000   1.0013   1.0020   1.0100
     1.0120   1.0161   1.0179   1.0185   1.0237   1.0284   1.0323   1.0341
     1.0454   1.0631   1.0790   0.7164   0.0122   0.0000   0.0000   0.0000
     0.0000   0.0000

          k =-0.2219-0.4496 0.2460 (  2332 PWs)   bands (ev):

   -38.3639 -38.3571 -10.6866 -10.6194 -10.5660 -10.4730 -10.4264 -10.3780
     3.6300   7.1391   9.8702  10.6692  11.6039  12.1970  12.3632  12.4242
    12.4370  12.4607  12.4665  12.4771  12.5010  12.5232  12.5529  12.5553
    12.6001  12.6316  12.7534  13.2579  13.7124  15.1848  15.6039  15.9896
    16.4479  17.1937

     occupation numbers 
     1.0000   1.0000   1.0000   1.0000   1.0000   1.0000   1.0000   1.0000
     1.0000   1.0000   1.0000   1.0000   1.0000   1.0011   1.0067   1.0120
     1.0132   1.0164   1.0170   1.0185   1.0220   1.0258   1.0316   1.0323
     1.0417   1.0499   1.0772   0.5916   0.0350   0.0000   0.0000   0.0000
     0.0000   0.0000

          k =-0.2219-0.4496 0.4921 (  2332 PWs)   bands (ev):

   -38.3603 -38.3564 -10.7208 -10.6799 -10.5910 -10.4986 -10.4105 -10.3721
     4.4238   7.1108   8.6823  10.5918  11.4970  12.0902  12.4171  12.4495
    12.4597  12.4636  12.4696  12.4785  12.4954  12.5141  12.5418  12.5591
    12.5790  12.5815  12.6333  12.9244  13.5573  14.7974  15.2710  16.3616
    16.8781  17.7087

     occupation numbers 
     1.0000   1.0000   1.0000   1.0000   1.0000   1.0000   1.0000   1.0000
     1.0000   1.0000   1.0000   1.0000   1.0000   1.0003   1.0111   1.0148
     1.0161   1.0166   1.0176   1.0188   1.0211   1.0242   1.0293   1.0327
     1.0370   1.0379   1.0500   1.0609   0.1243   0.0000   0.0000   0.0000
     0.0000   0.0000

          k =-0.2219-0.4496-0.7381 (  2348 PWs)   bands (ev):

   -38.3573 -38.3573 -10.7391 -10.7391 -10.5403 -10.5403 -10.3873 -10.3873
     5.6755   5.6755   9.5679   9.5679  11.7794  11.7794  12.4517  12.4517
    12.4730  12.4730  12.4752  12.4752  12.5144  12.5144  12.5358  12.5358
    12.5597  12.5597  12.6262  12.6262  14.2347  14.2347  15.3340  15.3340
    18.0039  18.0039

     occupation numbers 
     1.0000   1.0000   1.0000   1.0000   1.0000   1.0000   1.0000   1.0000
     1.0000   1.0000   1.0000   1.0000   1.0000   1.0000   1.0150   1.0150
     1.0180   1.0180   1.0183   1.0183   1.0241   1.0241   1.0280   1.0280
     1.0331   1.0331   1.0481   1.0481   0.0000   0.0000   0.0000   0.0000
     0.0000   0.0000

          k =-0.0000-0.3597 0.0000 (  2344 PWs)   bands (ev):

   -38.3694 -38.3543 -10.6771 -10.6164 -10.4658 -10.4662 -10.4486 -10.3785
     3.1122   6.8017  11.3932  11.4064  11.5568  12.2292  12.2761  12.4212
    12.4425  12.4693  12.4724  12.4860  12.4951  12.5383  12.5638  12.5967
    12.6168  12.6598  12.7187  12.8424  13.6359  15.3139  16.1793  16.2839
    16.3583  16.8657

     occupation numbers 
     1.0000   1.0000   1.0000   1.0000   1.0000   1.0000   1.0000   1.0000
     1.0000   1.0000   1.0000   1.0000   1.0000   1.0015   1.0028   1.0115
     1.0141   1.0174   1.0180   1.0196   1.0208   1.0286   1.0342   1.0415
     1.0457   1.0560   1.0690   1.0821   0.0682   0.0000   0.0000   0.0000
     0.0000   0.0000

          k =-0.0000-0.3597 0.2460 (  2332 PWs)   bands (ev):

   -38.3673 -38.3542 -10.6922 -10.6015 -10.5320 -10.4713 -10.4616 -10.3597
     3.4051   7.0891   9.8020  11.4306  11.6002  12.2587  12.3520  12.4359
    12.4448  12.4612  12.4634  12.4753  12.5196  12.5237  12.5339  12.5959
    12.6119  12.6549  12.7327  13.0520  14.2378  14.8183  15.0857  15.7357
    16.7513  17.7941

     occupation numbers 
     1.0000   1.0000   1.0000   1.0000   1.0000   1.0000   1.0000   1.0000
     1.0000   1.0000   1.0000   1.0000   1.0000   1.0023   1.0060   1.0131
     1.0143   1.0162   1.0167   1.0183   1.0250   1.0263   1.0278   1.0408
     1.0447   1.0557   1.0733   0.9548   0.0000   0.0000   0.0000   0.0000
     0.0000   0.0000

          k =-0.0000-0.3597 0.4921 (  2327 PWs)   bands (ev):

   -38.3624 -38.3548 -10.7300 -10.6549 -10.5642 -10.4888 -10.4425 -10.3662
     4.2542   7.1381   8.5681  11.0833  11.5542  12.1485  12.4139  12.4496
    12.4534  12.4588  12.4616  12.4793  12.4969  12.5178  12.5314  12.5687
    12.5777  12.6508  12.6852  13.1201  13.1793  14.3205  15.6845  16.3823
    16.6526  17.6326

     occupation numbers 
     1.0000   1.0000   1.0000   1.0000   1.0000   1.0000   1.0000   1.0000
     1.0000   1.0000   1.0000   1.0000   1.0000   1.0006   1.0107   1.0149
     1.0151   1.0158   1.0166   1.0189   1.0217   1.0248   1.0272   1.0348
     1.0367   1.0543   1.0631   0.8490   0.7494   0.0000   0.0000   0.0000
     0.0000   0.0000

          k =-0.0000-0.3597-0.7381 (  2326 PWs)   bands (ev):

   -38.3575 -38.3575 -10.7322 -10.7322 -10.5215 -10.5215 -10.4010 -10.4010
     5.5858   5.5858   9.6922   9.6922  11.8257  11.8257  12.4570  12.4570
    12.4634  12.4634  12.4814  12.4814  12.4941  12.4941  12.5385  12.5385
    12.5610  12.5610  12.7191  12.7191  13.7211  13.7211  16.3974  16.3974
    16.7891  16.7891

     occupation numbers 
     1.0000   1.0000   1.0000   1.0000   1.0000   1.0000   1.0000   1.0000
     1.0000   1.0000   1.0000   1.0000   1.0000   1.0000   1.0155   1.0155
     1.0166   1.0166   1.0194   1.0194   1.0207   1.0207   1.0286   1.0286
     1.0332   1.0332   1.0705   1.0705   0.0325   0.0325   0.0000   0.0000
     0.0000   0.0000

          k =-1.3313 0.0000 0.0000 (  2320 PWs)   bands (ev):

   -38.3624 -38.3613 -10.6276 -10.6260 -10.5032 -10.4565 -10.4225 -10.4222
     3.2549   6.5584  11.4426  11.5245  11.6694  12.1988  12.2634  12.4233
    12.4539  12.4638  12.4827  12.5079  12.5144  12.5383  12.5805  12.5735
    12.5966  12.6138  12.8372  12.8502  13.3833  15.6349  16.1615  16.3124
    16.3143  16.5108

     occupation numbers 
     1.0000   1.0000   1.0000   1.0000   1.0000   1.0000   1.0000   1.0000
     1.0000   1.0000   1.0000   1.0000   1.0000   1.0011   1.0024   1.0117
     1.0154   1.0167   1.0196   1.0233   1.0240   1.0286   1.0355   1.0363
     1.0413   1.0450   1.0826   1.0819   0.3513   0.0000   0.0000   0.0000
     0.0000   0.0000

          k =-1.3313 0.0000 0.2460 (  2322 PWs)   bands (ev):

   -38.3612 -38.3603 -10.6623 -10.6098 -10.5811 -10.4629 -10.4160 -10.3899
     3.5378   6.8739   9.8121  11.4890  11.6093  12.2455  12.3643  12.4334
    12.4597  12.4612  12.4814  12.4887  12.5008  12.5157  12.5443  12.5996
    12.6418  12.6886  12.7656  12.8943  14.4360  14.9980  15.3258  15.6288
    15.9548  17.9968

     occupation numbers 
     1.0000   1.0000   1.0000   1.0000   1.0000   1.0000   1.0000   1.0000
     1.0000   1.0000   1.0000   1.0000   1.0000   1.0019   1.0067   1.0128
     1.0162   1.0163   1.0194   1.0201   1.0218   1.0248   1.0297   1.0416
     1.0524   1.0640   1.0790   1.0745   0.0000   0.0000   0.0000   0.0000
     0.0000   0.0000

          k =-1.3313 0.0000 0.4921 (  2318 PWs)   bands (ev):

   -38.3589 -38.3583 -10.7313 -10.6958 -10.5691 -10.4841 -10.3967 -10.3704
     4.3636   7.1830   8.3206  10.8854  11.6210  12.1432  12.4208  12.4587
    12.4605  12.4735  12.4793  12.4832  12.4871  12.4922  12.5392  12.5698
    12.5849  12.6113  12.7497  13.2598  13.3479  14.8906  15.2670  15.7523
    17.2061  17.2672

     occupation numbers 
     1.0000   1.0000   1.0000   1.0000   1.0000   1.0000   1.0000   1.0000
     1.0000   1.0000   1.0000   1.0000   1.0000   1.0005   1.0114   1.0158
     1.0162   1.0182   1.0191   1.0195   1.0197   1.0205   1.0287   1.0348
     1.0386   1.0445   1.0769   0.5839   0.4176   0.0000   0.0000   0.0000
     0.0000   0.0000

          k =-1.3313 0.0000-0.7381 (  2324 PWs)   bands (ev):

   -38.3575 -38.3575 -10.7566 -10.7566 -10.5217 -10.5217 -10.3761 -10.3761
     5.6734   5.6734   9.4371   9.4371  11.8684  11.8684  12.4599  12.4599
    12.4692  12.4692  12.4808  12.4808  12.4912  12.4912  12.5363  12.5363
    12.5590  12.5590  12.8102  12.8102  14.0915  14.0915  15.9952  15.9952
    16.3833  16.3833

     occupation numbers 
     1.0000   1.0000   1.0000   1.0000   1.0000   1.0000   1.0000   1.0000
     1.0000   1.0000   1.0000   1.0000   1.0000   1.0000   1.0159   1.0159
     1.0174   1.0174   1.0193   1.0193   1.0203   1.0203   1.0282   1.0282
     1.0328   1.0328   1.0832   1.0832   0.0004   0.0004   0.0000   0.0000
     0.0000   0.0000

 ------ SPIN DOWN ----------


          k = 0.0000 0.0000 0.0000 (  2339 PWs)   bands (ev):

   -38.0963 -38.0653 -10.5719 -10.3857 -10.3207 -10.3187 -10.1577 -10.1398
     2.7514   7.5876  10.4916  11.3036  11.7272  12.4941  12.8958  12.9090
    12.9178  12.9770  12.9781  13.0172  13.0253  13.0266  13.0313  13.0392
    13.1160  13.1173  13.2031  13.2219  14.2474  14.9399  16.1912  17.1261
    17.2650  17.3207

     occupation numbers 
     1.0000   1.0000   1.0000   1.0000   1.0000   1.0000   1.0000   1.0000
     1.0000   1.0000   1.0000   1.0000   1.0000   1.0187   1.0720   1.0679
     1.0635   1.0276   1.0258   0.9897   0.9811   0.9792   0.9762   0.9649
     0.8558   0.8523   0.6931   0.6565   0.0000   0.0000   0.0000   0.0000
     0.0000   0.0000

          k = 0.0000 0.0000 0.2460 (  2345 PWs)   bands (ev):

   -38.0931 -38.0662 -10.5411 -10.3761 -10.3510 -10.3197 -10.1975 -10.1814
     3.0688   7.6947  10.1643  10.7597  11.3096  12.8256  12.8354  12.8607
    12.9338  12.9803  12.9852  13.0048  13.0137  13.0213  13.0299  13.0611
    13.1219  13.1226  13.2037  14.0154  14.0308  14.0406  15.7011  16.2405
    17.2422  17.9615

     occupation numbers 
     1.0000   1.0000   1.0000   1.0000   1.0000   1.0000   1.0000   1.0000
     1.0000   1.0000   1.0000   1.0000   1.0000   1.0833   1.0830   1.0806
     1.0558   1.0249   1.0199   1.0025   0.9936   0.9852   0.9764   0.9367
     0.8459   0.8433   0.6924   0.0012   0.0010   0.0008   0.0000   0.0000
     0.0000   0.0000

          k = 0.0000 0.0000 0.4921 (  2348 PWs)   bands (ev):

   -38.0852 -38.0696 -10.4600 -10.4070 -10.3537 -10.3211 -10.3176 -10.2490
     3.9761   6.9901   9.5661  11.3123  11.3909  12.3503  12.4107  12.9009
    12.9300  12.9606  12.9782  12.9833  13.0031  13.0308  13.0506  13.0953
    13.1225  13.1281  13.1629  13.2554  13.2718  13.8118  16.2442  16.5768
    17.4228  18.6268

     occupation numbers 
     1.0000   1.0000   1.0000   1.0000   1.0000   1.0000   1.0000   1.0000
     1.0000   1.0000   1.0000   1.0000   1.0000   1.0052   1.0094   1.0705
     1.0579   1.0394   1.0276   1.0218   1.0043   0.9747   0.9506   0.8868
     0.8433   0.8352   0.7705   0.5902   0.5585   0.0134   0.0000   0.0000
     0.0000   0.0000

          k = 0.0000 0.0000-0.7381 (  2342 PWs)   bands (ev):

   -38.0763 -38.0763 -10.4115 -10.4115 -10.3451 -10.3451 -10.3321 -10.3321
     5.3647   5.3647  10.5788  10.5788  11.7094  11.7094  12.6099  12.6099
    12.9242  12.9242  12.9647  12.9647  13.0216  13.0216  13.0831  13.0831
    13.1053  13.1053  13.1490  13.1490  13.2014  13.2014  17.0967  17.0967
    18.1365  18.1365

     occupation numbers 
     1.0000   1.0000   1.0000   1.0000   1.0000   1.0000   1.0000   1.0000
     1.0000   1.0000   1.0000   1.0000   1.0000   1.0000   1.0412   1.0412
[...]

   -38.2763 -38.2690 -10.7238 -10.5731 -10.5434 -10.4188 -10.3887 -10.3804
     3.5130   7.4226   9.0393  11.1047  11.5978  11.8257  12.6147  12.7177
    12.7637  12.7664  12.7756  12.7891  12.8105  12.8155  12.8445  12.8509
    12.8695  12.8751  12.9214  13.0551  14.3123  14.6306  14.8732  15.7580
    16.3981  16.6582

     occupation numbers 
     1.0000   1.0000   1.0000   1.0000   1.0000   1.0000   1.0000   1.0000
     1.0000   1.0000   1.0000   1.0000   1.0000   1.0001   1.0828   1.0684
     1.0443   1.0423   1.0360   1.0263   1.0069   1.0011   0.9702   0.9617
     0.9384   0.9317   0.8601   0.6089   0.0000   0.0000   0.0000   0.0000
     0.0000   0.0000

          k = 0.8817 0.0000 0.2454 (  2333 PWs)   bands (ev):

   -38.2748 -38.2684 -10.6996 -10.5975 -10.5747 -10.4541 -10.3856 -10.3767
     3.7477   7.4548   9.2961   9.9368  11.5387  11.9482  12.6918  12.7016
    12.7558  12.7752  12.7803  12.7862  12.7990  12.8181  12.8401  12.8432
    12.8521  12.8589  12.9415  13.0354  13.6626  14.9126  15.3162  16.1641
    16.8176  17.3436

     occupation numbers 
     1.0000   1.0000   1.0000   1.0000   1.0000   1.0000   1.0000   1.0000
     1.0000   1.0000   1.0000   1.0000   1.0000   1.0005   1.0764   1.0737
     1.0493   1.0365   1.0327   1.0278   1.0176   0.9991   0.9751   0.9715
     0.9606   0.9525   0.8269   0.6487   0.0081   0.0000   0.0000   0.0000
     0.0000   0.0000

          k = 0.8817 0.0000 0.4909 (  2361 PWs)   bands (ev):

   -38.2713 -38.2676 -10.6656 -10.6618 -10.6169 -10.4944 -10.3875 -10.3795
     4.4363   6.8297   9.2554   9.7811  11.2694  11.9145  12.6792  12.7314
    12.7522  12.7695  12.7790  12.7861  12.7985  12.8191  12.8295  12.8345
    12.8397  12.8451  12.9047  12.9280  13.5338  14.1781  15.4436  16.8623
    17.6216  17.9799

     occupation numbers 
     1.0000   1.0000   1.0000   1.0000   1.0000   1.0000   1.0000   1.0000
     1.0000   1.0000   1.0000   1.0000   1.0000   1.0003   1.0791   1.0622
     1.0516   1.0407   1.0340   1.0280   1.0173   0.9983   0.9868   0.9815
     0.9759   0.9694   0.8875   0.8500   0.0304   0.0000   0.0000   0.0000
     0.0000   0.0000

          k = 0.8817 0.0000-0.7363 (  2352 PWs)   bands (ev):

   -38.2684 -38.2684 -10.6958 -10.6958 -10.5511 -10.5511 -10.3847 -10.3847
     5.5291   5.5291   9.6497   9.6497  11.4726  11.4726  12.7138  12.7138
    12.7714  12.7714  12.7910  12.7910  12.7987  12.7987  12.8294  12.8294
    12.8437  12.8437  12.8719  12.8719  13.7995  13.7995  15.8965  15.8965
    18.4620  18.4620

     occupation numbers 
     1.0000   1.0000   1.0000   1.0000   1.0000   1.0000   1.0000   1.0000
     1.0000   1.0000   1.0000   1.0000   1.0000   1.0000   1.0696   1.0696
     1.0395   1.0395   1.0236   1.0236   1.0176   1.0176   0.9870   0.9870
     0.9713   0.9713   0.9355   0.9355   0.0015   0.0015   0.0000   0.0000
     0.0000   0.0000

          k =-0.2204-0.4487 0.0000 (  2338 PWs)   bands (ev):

   -38.2768 -38.2694 -10.6706 -10.5813 -10.4967 -10.4237 -10.4179 -10.3818
     3.1990   6.7530  10.3540  11.3009  11.5014  12.4419  12.5290  12.6992
    12.7453  12.7479  12.7583  12.7805  12.7859  12.8138  12.8514  12.8547
    12.8728  12.9210  12.9663  13.2144  13.7410  14.7507  15.6415  15.7195
    16.1516  16.3311

     occupation numbers 
     1.0000   1.0000   1.0000   1.0000   1.0000   1.0000   1.0000   1.0000
     1.0000   1.0000   1.0000   1.0000   1.0000   1.0480   1.0694   1.0745
     1.0557   1.0539   1.0481   1.0320   1.0283   1.0030   0.9612   0.9577
     0.9339   0.8603   0.7843   0.3107   0.0032   0.0000   0.0000   0.0000
     0.0000   0.0000

          k =-0.2204-0.4487 0.2454 (  2332 PWs)   bands (ev):

   -38.2753 -38.2689 -10.6637 -10.6008 -10.5464 -10.4541 -10.4092 -10.3604
     3.4697   6.9994   9.7076  10.5110  11.5220  12.4136  12.6828  12.7095
    12.7333  12.7504  12.7633  12.7785  12.7869  12.8098  12.8377  12.8508
    12.8572  12.8956  12.9843  13.2341  13.6715  15.0472  15.4758  15.8470
    16.2949  17.0276

     occupation numbers 
     1.0000   1.0000   1.0000   1.0000   1.0000   1.0000   1.0000   1.0000
     1.0000   1.0000   1.0000   1.0000   1.0000   1.0412   1.0784   1.0713
     1.0617   1.0526   1.0448   1.0337   1.0275   1.0074   0.9776   0.9622
     0.9542   0.9021   0.7483   0.2797   0.0073   0.0000   0.0000   0.0000
     0.0000   0.0000

          k =-0.2204-0.4487 0.4909 (  2332 PWs)   bands (ev):

   -38.2718 -38.2681 -10.6972 -10.6578 -10.5742 -10.4806 -10.3927 -10.3547
     4.2593   6.9461   8.5360  10.4584  11.3743  12.1512  12.6979  12.7297
    12.7433  12.7523  12.7697  12.7758  12.7843  12.8065  12.8266  12.8423
    12.8587  12.8685  12.9097  13.0745  13.4969  14.6759  15.1533  16.2128
    16.6984  17.5627

     occupation numbers 
     1.0000   1.0000   1.0000   1.0000   1.0000   1.0000   1.0000   1.0000
     1.0000   1.0000   1.0000   1.0000   1.0000   1.0051   1.0747   1.0632
     1.0564   1.0516   1.0403   1.0359   1.0294   1.0104   0.9902   0.9729
     0.9525   0.9401   0.8798   0.5702   0.0425   0.0000   0.0000   0.0000
     0.0000   0.0000

          k =-0.2204-0.4487-0.7363 (  2348 PWs)   bands (ev):

   -38.2688 -38.2688 -10.7161 -10.7161 -10.5229 -10.5229 -10.3696 -10.3696
     5.5068   5.5068   9.4287   9.4287  11.6887  11.6887  12.7246  12.7246
    12.7543  12.7543  12.7776  12.7776  12.7879  12.7879  12.8357  12.8357
    12.8656  12.8656  12.9024  12.9024  14.1290  14.1290  15.2110  15.2110
    17.7966  17.7966

     occupation numbers 
     1.0000   1.0000   1.0000   1.0000   1.0000   1.0000   1.0000   1.0000
     1.0000   1.0000   1.0000   1.0000   1.0000   1.0000   1.0654   1.0654
     1.0503   1.0503   1.0345   1.0345   1.0265   1.0265   0.9811   0.9811
     0.9438   0.9438   0.8903   0.8903   0.0000   0.0000   0.0000   0.0000
     0.0000   0.0000

          k = 0.0000-0.3590 0.0000 (  2344 PWs)   bands (ev):

   -38.2807 -38.2660 -10.6519 -10.6005 -10.4488 -10.4473 -10.4299 -10.3611
     2.9607   6.6698  11.2533  11.2984  11.4330  12.3558  12.5912  12.6349
    12.7259  12.7406  12.7603  12.7851  12.7907  12.8104  12.8440  12.8602
    12.8656  12.9126  12.9306  13.0214  13.5917  15.1677  16.0477  16.1682
    16.2205  16.6937

     occupation numbers 
     1.0000   1.0000   1.0000   1.0000   1.0000   1.0000   1.0000   1.0000
     1.0000   1.0000   1.0000   1.0000   1.0000   1.0287   1.0806   1.0833
     1.0651   1.0579   1.0466   1.0290   1.0244   1.0061   0.9698   0.9508
     0.9434   0.8749   0.8445   0.6787   0.0172   0.0000   0.0000   0.0000
     0.0000   0.0000

          k = 0.0000-0.3590 0.2454 (  2332 PWs)   bands (ev):

   -38.2787 -38.2659 -10.6676 -10.5855 -10.5109 -10.4540 -10.4442 -10.3423
     3.2512   6.9522   9.6392  11.2994  11.5062  12.5454  12.6284  12.6996
    12.7380  12.7548  12.7559  12.7783  12.7963  12.8270  12.8270  12.8596
    12.8603  12.9451  12.9464  13.0186  14.1479  14.6904  14.9794  15.6017
    16.6272  17.6124

     occupation numbers 
     1.0000   1.0000   1.0000   1.0000   1.0000   1.0000   1.0000   1.0000
     1.0000   1.0000   1.0000   1.0000   1.0000   1.0729   1.0833   1.0744
     1.0593   1.0501   1.0493   1.0340   1.0199   0.9902   0.9892   0.9511
     0.9503   0.8201   0.8183   0.6833   0.0000   0.0000   0.0000   0.0000
     0.0000   0.0000

          k = 0.0000-0.3590 0.4909 (  2327 PWs)   bands (ev):

   -38.2738 -38.2665 -10.7063 -10.6328 -10.5480 -10.4719 -10.4243 -10.3487
     4.0942   6.9699   8.4273  10.9635  11.4439  12.2708  12.6390  12.7183
    12.7489  12.7594  12.7680  12.7713  12.7970  12.8126  12.8246  12.8519
    12.8673  12.8935  12.9677  13.1328  13.1979  14.2231  15.5435  16.2187
    16.4839  17.4593

     occupation numbers 
     1.0000   1.0000   1.0000   1.0000   1.0000   1.0000   1.0000   1.0000
     1.0000   1.0000   1.0000   1.0000   1.0000   1.0152   1.0832   1.0681
     1.0533   1.0471   1.0417   1.0393   1.0190   1.0044   0.9924   0.9613
     0.9413   0.9050   0.7796   0.4558   0.3374   0.0000   0.0000   0.0000
     0.0000   0.0000

          k = 0.0000-0.3590-0.7363 (  2326 PWs)   bands (ev):

   -38.2691 -38.2691 -10.7091 -10.7091 -10.5050 -10.5050 -10.3830 -10.3830
     5.4184   5.4184   9.5520   9.5520  11.7626  11.7626  12.7085  12.7085
    12.7483  12.7483  12.7816  12.7816  12.7830  12.7830  12.8361  12.8361
    12.8630  12.8630  12.9736  12.9736  13.6404  13.6404  16.2420  16.2420
    16.5927  16.5927

     occupation numbers 
     1.0000   1.0000   1.0000   1.0000   1.0000   1.0000   1.0000   1.0000
     1.0000   1.0000   1.0000   1.0000   1.0000   1.0000   1.0715   1.0715
     1.0540   1.0540   1.0313   1.0313   1.0303   1.0303   0.9807   0.9807
     0.9473   0.9473   0.7682   0.7682   0.0103   0.0103   0.0000   0.0000
     0.0000   0.0000

          k =-1.3226 0.0000 0.0000 (  2320 PWs)   bands (ev):

   -38.2734 -38.2733 -10.6099 -10.6022 -10.4848 -10.4393 -10.4067 -10.4020
     3.1009   6.4278  11.3085  11.3978  11.5838  12.4114  12.5080  12.5778
    12.7397  12.7402  12.7547  12.7631  12.7773  12.8034  12.8567  12.8677
    12.8710  12.9041  13.0148  13.0214  13.4158  15.4844  16.0442  16.1444
    16.1987  16.3663

     occupation numbers 
     1.0000   1.0000   1.0000   1.0000   1.0000   1.0000   1.0000   1.0000
     1.0000   1.0000   1.0000   1.0000   1.0000   1.0407   1.0644   1.0788
     1.0589   1.0581   1.0501   1.0446   1.0342   1.0134   0.9547   0.9406
     0.9366   0.8878   0.6887   0.6787   0.0838   0.0000   0.0000   0.0000
     0.0000   0.0000

          k =-1.3226 0.0000 0.2454 (  2322 PWs)   bands (ev):

   -38.2724 -38.2723 -10.6378 -10.5937 -10.5602 -10.4458 -10.3994 -10.3715
     3.3816   6.7388   9.6479  11.3672  11.5292  12.5339  12.6738  12.6866
    12.7267  12.7538  12.7563  12.7708  12.7802  12.8061  12.8367  12.8541
    12.8716  12.9070  12.9711  13.0103  14.3462  14.9011  15.1867  15.4695
    15.8614  17.8192

     occupation numbers 
     1.0000   1.0000   1.0000   1.0000   1.0000   1.0000   1.0000   1.0000
     1.0000   1.0000   1.0000   1.0000   1.0000   1.0705   1.0801   1.0777
     1.0647   1.0506   1.0488   1.0399   1.0324   1.0111   0.9785   0.9581
     0.9353   0.8847   0.7737   0.6979   0.0000   0.0000   0.0000   0.0000
     0.0000   0.0000

          k =-1.3226 0.0000 0.4909 (  2318 PWs)   bands (ev):

   -38.2702 -38.2701 -10.7077 -10.6732 -10.5528 -10.4672 -10.3790 -10.3528
     4.2016   7.0148   8.1804  10.7618  11.5287  12.2910  12.6974  12.7232
    12.7456  12.7521  12.7607  12.7758  12.7931  12.8031  12.8267  12.8468
    12.8733  12.8857  13.0163  13.2830  13.3150  14.8123  15.1260  15.5772
    17.0358  17.1048

     occupation numbers 
     1.0000   1.0000   1.0000   1.0000   1.0000   1.0000   1.0000   1.0000
     1.0000   1.0000   1.0000   1.0000   1.0000   1.0179   1.0748   1.0661
     1.0549   1.0520   1.0463   1.0360   1.0221   1.0135   0.9902   0.9677
     0.9338   0.9159   0.6864   0.2110   0.1721   0.0000   0.0000   0.0000
     0.0000   0.0000

          k =-1.3226 0.0000-0.7363 (  2324 PWs)   bands (ev):

   -38.2691 -38.2691 -10.7333 -10.7333 -10.5052 -10.5052 -10.3584 -10.3584
     5.5044   5.5044   9.2981   9.2981  11.8357  11.8357  12.7192  12.7192
    12.7471  12.7471  12.7785  12.7785  12.7836  12.7836  12.8365  12.8365
    12.8677  12.8677  13.0365  13.0365  14.0082  14.0082  15.8430  15.8430
    16.1860  16.1860

     occupation numbers 
     1.0000   1.0000   1.0000   1.0000   1.0000   1.0000   1.0000   1.0000
     1.0000   1.0000   1.0000   1.0000   1.0001   1.0001   1.0675   1.0675
     1.0547   1.0547   1.0337   1.0337   1.0298   1.0298   0.9803   0.9803
     0.9411   0.9411   0.6456   0.6456   0.0001   0.0001   0.0000   0.0000
     0.0000   0.0000

     the Fermi energy is    13.1629 ev

     Forces acting on atoms (cartesian axes, Ry/au):

     atom    1 type  2   force =     0.00000000    0.00454433    0.00000000
     atom    2 type  2   force =     0.00000000   -0.00454433    0.00000000
     atom    3 type  1   force =     0.00000000    0.00493125    0.00000000
     atom    4 type  1   force =     0.00000000   -0.00493125    0.00000000
     The non-local contrib.  to forces
     atom    1 type  2   force =     0.00000000   -0.03537346   -0.00000000
     atom    2 type  2   force =    -0.00000000    0.03537346    0.00000000
     atom    3 type  1   force =     0.00000000    0.08914854   -0.00000000
     atom    4 type  1   force =    -0.00000000   -0.08914854    0.00000000
     The ionic contribution  to forces
     atom    1 type  2   force =     0.00000000    0.97369290    0.00000000
     atom    2 type  2   force =    -0.00000000   -0.97369290    0.00000000
     atom    3 type  1   force =     0.00000000    0.91428232    0.00000000
     atom    4 type  1   force =    -0.00000000   -0.91428232   -0.00000000
     The local contribution  to forces
     atom    1 type  2   force =    -0.00000000   -0.93377316    0.00000000
     atom    2 type  2   force =     0.00000000    0.93377316   -0.00000000
     atom    3 type  1   force =    -0.00000000   -0.99056151    0.00000000
     atom    4 type  1   force =     0.00000000    0.99056151    0.00000000
     The core correction contribution to forces
     atom    1 type  2   force =     0.00000000   -0.00000195    0.00000000
     atom    2 type  2   force =     0.00000000    0.00000195   -0.00000000
     atom    3 type  1   force =     0.00000000   -0.00793811   -0.00000000
     atom    4 type  1   force =     0.00000000    0.00793811    0.00000000
     The Hubbard contrib.    to forces
     atom    1 type  2   force =     0.00000000    0.00000000    0.00000000
     atom    2 type  2   force =     0.00000000    0.00000000    0.00000000
     atom    3 type  1   force =     0.00000000    0.00000000    0.00000000
     atom    4 type  1   force =     0.00000000    0.00000000    0.00000000
     The SCF correction term to forces
     atom    1 type  2   force =     0.00000000    0.00000000    0.00000000
     atom    2 type  2   force =     0.00000000    0.00000000    0.00000000
     atom    3 type  1   force =     0.00000000    0.00000000    0.00000000
     atom    4 type  1   force =     0.00000000    0.00000000    0.00000000

     Total force =     0.009483     Total SCF correction =     0.000000


     Computing stress (Cartesian axis) and pressure

          total   stress  (Ry/bohr**3)                   (kbar)     P=        6.73
   0.00007915  -0.00000000   0.00000000           11.64       -0.00        0.00
   0.00000000   0.00002629   0.00000000            0.00        3.87        0.00
   0.00000000   0.00000000   0.00003178            0.00        0.00        4.67

     kinetic stress (kbar)   8678.82      0.00     -0.00
                                0.00   8604.41     -0.00
                               -0.00     -0.00   8605.74

     local   stress (kbar)  13171.11      0.00     -0.00
                                0.00  -1495.39     -0.00
                               -0.00     -0.00   -687.08

     nonloc. stress (kbar)  13324.04      0.00     -0.00
                                0.00  13329.92     -0.00
                               -0.00     -0.00  13356.12

     hartree stress (kbar)  26578.98      0.00     -0.00
                                0.00  33580.12     -0.00
                               -0.00     -0.00  33533.13

     exc-cor stress (kbar)  -4983.47     -0.00     -0.00
                               -0.00  -4984.73     -0.00
                               -0.00     -0.00  -4984.65

     corecor stress (kbar)  -1920.64     -0.00     -0.00
                               -0.00  -1919.29     -0.00
                               -0.00     -0.00  -1919.38

     ewald   stress (kbar) -54837.21     -0.00     -0.00
                               -0.00 -47111.16     -0.00
                               -0.00     -0.00 -47899.20

     hubbard stress (kbar)      0.00      0.00      0.00
                                0.00      0.00      0.00
                                0.00      0.00      0.00

     DFT-D   stress (kbar)      0.00      0.00      0.00
                                0.00      0.00      0.00
                                0.00      0.00      0.00

     XDM     stress (kbar)      0.00      0.00      0.00
                                0.00      0.00      0.00
                                0.00      0.00      0.00

     dft-nl  stress (kbar)      0.00      0.00      0.00
                                0.00      0.00      0.00
                                0.00      0.00      0.00

     TS-vdW  stress (kbar)      0.00      0.00      0.00
                                0.00      0.00      0.00
                                0.00      0.00      0.00

     MDB     stress (kbar)      0.00      0.00      0.00
                                0.00      0.00      0.00
                                0.00      0.00      0.00

     3D-RISM stress (kbar)      0.00      0.00      0.00
                                0.00      0.00      0.00
                                0.00      0.00      0.00

     Message from routine bfgs:
     history already reset at previous step: exiting
     Energy error            =      2.2E-02 Ry
     Gradient error          =      4.9E-03 Ry/Bohr
     Cell gradient error     =      1.2E+01 kbar

     bfgs failed after   6 scf cycles and   2 bfgs steps, convergence not achieved
     (criteria: energy <  4.0E-03 Ry, force <  5.0E-03 Ry/Bohr, cell <  2.0E+00 kbar)

     End of BFGS Geometry Optimization

     Final enthalpy           =   -2027.7454548030 Ry

     File ./out/aiida.bfgs deleted, as requested
Begin final coordinates
     new unit-cell volume =    553.62661 a.u.^3 (    82.03900 Ang^3 )
     density =      8.14247 g/cm^3

CELL_PARAMETERS (angstrom)
   2.102713386  -5.164687650   0.000000000
   2.102713386   5.164687650   0.000000000
   0.000000000   0.000000000   3.777167268

ATOMIC_POSITIONS (angstrom)
Yb            0.0000000000        1.4431831562        0.9442918169
Yb            2.1027133864        3.7215044940        2.8328754508
Si            0.0000000000        4.3960976615        0.9442918169
Si            2.1027133864        0.7685899887        2.8328754508
End final coordinates



     Writing config-only to output data dir ./out/aiida.save/

     Writing all to output data dir ./out/aiida.save/

     init_run     :      6.33s CPU      7.87s WALL (       1 calls)
     electrons    :   1165.30s CPU   1341.42s WALL (       6 calls)
     forces       :      0.94s CPU      1.11s WALL (       6 calls)
     stress       :     15.09s CPU     15.39s WALL (       6 calls)

     Called by init_run:
     wfcinit      :      0.00s CPU      0.01s WALL (       1 calls)
     potinit      :      2.50s CPU      3.19s WALL (       1 calls)
     hinit0       :      3.71s CPU      4.38s WALL (       1 calls)

     Called by electrons:
     v_of_rho     :      0.16s CPU      0.17s WALL (       1 calls)
     v_h          :      0.00s CPU      0.00s WALL (       1 calls)
     v_xc         :      0.15s CPU      0.17s WALL (       1 calls)
     newd         :      0.09s CPU      0.25s WALL (       1 calls)
     PAW_pot      :      0.38s CPU      0.41s WALL (       1 calls)

     Called by c_bands:

     Called by sum_band:

     Called by *egterg:

     Called by h_psi:

     General routines
     fft          :      1.07s CPU      1.72s WALL (      35 calls)
     ffts         :      0.74s CPU      1.38s WALL (       2 calls)
     interpolate  :      0.74s CPU      1.38s WALL (       2 calls)
     davcio       :      0.00s CPU      0.02s WALL (      13 calls)

     Parallel routines

     PAW routines
     PAW_pot      :      0.38s CPU      0.41s WALL (       1 calls)
     PAW_symme    :      0.00s CPU      0.00s WALL (       1 calls)

     PWSCF        :  20m 8.88s CPU  23m15.85s WALL


   This run was terminated on:   2:21:45  14May2024            

=------------------------------------------------------------------------------=
   JOB DONE.
=------------------------------------------------------------------------------=
